   * xtb version 6.6.1 (8d0f1dd) compiled by 'conda@1efc2f54142f' on 2023-08-01
          program call               : xtb xtbopt.xyz --opt crude --input .xc2 --gfn2

   ID    Z sym.   atoms
    1    7 N      1, 17
    2    6 C      2-6, 8, 9, 11-16, 18-23, 25, 26, 28-33
    3    8 O      7, 10, 24, 27
    4    1 H      34-72

          :  Hamiltonian                  GFN2-xTB          :
 * total energy  :   -99.3482468 Eh     change       -0.3339551E-11 Eh
   *** GEOMETRY OPTIMIZATION CONVERGED AFTER 1 ITERATIONS ***

 final structure:
================
72
 xtb: 6.6.1 (8d0f1dd)
N           -2.53828232178338        2.75161911475067        2.50824154342781
C           -2.57792271402958        1.96967205953907        1.58407042453346
C           -2.85418097200460        1.30915231585048        0.47989695783343
C           -3.54491693453292        0.02650653210970        0.51283352773824
C           -4.12954181234577       -0.51212616885010       -0.64036226810930
C           -4.74205449984796       -1.75141277655258       -0.61947919128884
O           -5.32704618187125       -2.34875818302617       -1.68109181432158
C           -5.35474085698495       -1.67871377183695       -2.91881671843983
C           -4.78489492805345       -2.49820630228783        0.59032167792225
O           -5.38179201110796       -3.70206208859756        0.50433004607712
C           -5.46862238958406       -4.51086908648795        1.65483453448656
C           -4.22794001307533       -1.94598106667216        1.73722136830325
C           -3.62004663149871       -0.70474733768331        1.69973513593291
C           -2.31158425225333        1.87227777315888       -0.81813714605250
C           -1.30567421334820        0.91743718567373       -1.46691536099364
C           -0.07657309370768        0.71359242098113       -0.57825866304094
N            0.87553568172533       -0.20346114099652       -1.16550246793932
C            2.23583937041394       -0.08054403356063       -0.68450058998980
C            3.25337085330096       -0.37952849288013       -1.80173604501663
C            4.64835712012955       -0.15874016352127       -1.29707689307266
C            5.31302339090094        1.03663517661674       -1.52558241265950
C            6.58720358887288        1.25101559416651       -1.02302871163130
C            7.22337964344471        0.27314427905024       -0.27144167208647
O            8.45371846874225        0.36938703118949        0.26866050836469
C            9.20527761817391        1.54299372609593        0.06237909276478
C            6.54948461540996       -0.95623761120148       -0.02774045018991
O            7.23783935615493       -1.84932335198059        0.71193876944269
C            6.65930509954256       -3.10132773887508        0.99258630844008
C            5.27806990108153       -1.14782271116882       -0.54476124213236
C            0.40412765373215       -1.56816129227411       -1.23325665057847
C           -5.65575526627138        4.95028560779010        1.31554449203895
C           -5.94745503750827        3.81371360918636        2.19410982014910
C           -4.30891561990448        5.49879595109408        1.14094418413922
H           -4.12232999385544        0.05915918057939       -1.55330078094272
H           -5.90206650607949       -0.73288933153626       -2.85207846204464
H           -5.87609738336184       -2.34732464690785       -3.60110311997209
H           -4.34481875497439       -1.49150496466486       -3.29916002987600
H           -6.06198251532350       -4.03058559245751        2.43891889333106
H           -5.96710631790622       -5.42314689728656        1.33334177509432
H           -4.47721330868366       -4.75866998361023        2.04669311622251
H           -4.25942692099978       -2.48543146943253        2.67005161404461
H           -3.18379864371682       -0.30191480396906        2.60181410963869
H           -3.13925880044730        2.05646530599429       -1.50586794502165
H           -1.83123946946297        2.83153687895707       -0.61713933182508
H           -1.78941537520049       -0.04263627063689       -1.64220765297023
H           -0.98628313743218        1.32341193174793       -2.42803649654679
H           -0.40954380740188        0.35741594104335        0.41501718281168
H            0.41832380156346        1.68002647021680       -0.44171615801401
H            2.42384067778830       -0.75263143535672        0.16827189075387
H            2.40088608255467        0.94444635261337       -0.34288463277787
H            3.04352610526834        0.28043751013782       -2.64470087423718
H            3.14011688186970       -1.41117733822945       -2.13926497519506
H            4.83948003905482        1.81117594738612       -2.10911429547404
H            7.08006473840502        2.18828046397814       -1.22400703306431
H            8.71017996530305        2.41662577540852        0.49685195930875
H            9.38998198089001        1.71865027586975       -1.00152453654873
H           10.15304650477107        1.37510222812242        0.57058828770983
H            7.38953485966055       -3.63044852442872        1.60180448023182
H            5.72654503861852       -2.99599016435599        1.55577200839005
H            6.47115963288043       -3.67008056073069        0.07668689290634
H            4.76160692781736       -2.07953910958478       -0.37476293077179
H           -0.40614757082266       -1.64535092587663       -1.95545778250184
H            0.03777889341443       -1.92524099415936       -0.25736122186701
H            1.20928536908645       -2.21976324944836       -1.56311809483777
H           -6.47951361182092        5.43109280700540        0.81172483296026
H           -5.04591673915202        3.42274644396045        2.65700130104852
H           -6.44028967722161        3.01249626819189        1.63683703903382
H           -6.65859629131798        4.10631321405959        2.97210222137706
H           -3.54883190356859        4.78148828455599        1.44461454126956
H           -4.14100539065989        5.81911442370439        0.11199859410671
H           -4.18697725334569        6.39641998266690        1.75972643552957
H           -1.79757514138870        2.79785504108980        3.19429392782404

          :  Hamiltonian                  GFN2-xTB          :
         :: total energy             -99.348246834516 Eh    ::
         :: gradient norm              0.003524145892 Eh/a0 ::
         :: HOMO-LUMO gap              1.093905179584 eV    ::
         :: SCC energy              -100.765138090325 Eh    ::
         :: -> dispersion             -0.065979919825 Eh    ::
         :: repulsion energy           1.415987413314 Eh    ::

    * Orbital Energies and Occupations

         #    Occupation            Energy/Eh            Energy/eV
      -------------------------------------------------------------
         1        2.0000           -0.8033854             -21.8612
       ...           ...                  ...                  ...
        78        1.9990           -0.5306522             -14.4398
        79        1.9984           -0.5239824             -14.2583
        80        1.9983           -0.5230418             -14.2327
        81        1.9978           -0.5184435             -14.1076
        82        1.9973           -0.5153616             -14.0237
        83        1.9970           -0.5139981             -13.9866
        84        1.9956           -0.5075541             -13.8112
        85        1.9879           -0.4915795             -13.3766
        86        1.9692           -0.4766291             -12.9697
        87        1.9551           -0.4705510             -12.8043
        88        1.8527           -0.4508960             -12.2695
        89        1.7793           -0.4438587             -12.0780
        90        1.7456           -0.4413096             -12.0086 (HOMO)
        91        0.7029           -0.4011093             -10.9147 (LUMO)
        92        0.0162           -0.3346915              -9.1074
        93        0.0092           -0.3256093              -8.8603
        94        0.0028           -0.3069363              -8.3522
        95        0.0019           -0.3005913              -8.1795
        96        0.0016           -0.2977792              -8.1030
        97        0.0001           -0.2561041              -6.9689
        98        0.0000           -0.1754549              -4.7744
        99        0.0000           -0.1719329              -4.6785
       100                         -0.0878822              -2.3914
       101                         -0.0586463              -1.5958
       ...                                ...                  ...
       171                          0.9608334              26.1456
      -------------------------------------------------------------
                  HL-Gap            0.0402003 Eh            1.0939 eV

     #   Z          covCN         q      C6AA      α(0)
     1   7 N        1.772    -0.230    26.854     7.674
     2   6 C        1.917     0.101    28.585     8.634
     3   6 C        2.950    -0.026    28.640     8.778
     4   6 C        2.977     0.013    27.723     8.637
     5   6 C        2.919    -0.079    29.983     8.979
     6   6 C        2.861     0.130    25.141     8.219
     7   8 O        1.706    -0.232    17.850     5.704
     8   6 C        3.644     0.029    20.424     6.496
     9   6 C        2.864     0.132    25.113     8.214
    10   8 O        1.706    -0.224    17.720     5.683
    11   6 C        3.645     0.026    20.465     6.502
    12   6 C        2.912    -0.067    29.673     8.932
    13   6 C        2.923    -0.049    29.209     8.863
    14   6 C        3.815    -0.051    21.478     6.596
    15   6 C        3.803    -0.067    21.778     6.644
    16   6 C        3.752     0.003    20.584     6.470
    17   7 N        2.727    -0.123    23.683     7.228
    18   6 C        3.754     0.004    20.564     6.466
    19   6 C        3.808    -0.071    21.857     6.655
    20   6 C        2.969     0.009    27.826     8.652
    21   6 C        2.922    -0.046    29.133     8.851
    22   6 C        2.913    -0.067    29.658     8.930
    23   6 C        2.864     0.133    25.096     8.212
    24   8 O        1.706    -0.222    17.689     5.679
    25   6 C        3.645     0.026    20.479     6.504
    26   6 C        2.863     0.133    25.086     8.210
    27   8 O        1.706    -0.225    17.726     5.684
    28   6 C        3.645     0.028    20.446     6.499
    29   6 C        2.920    -0.077    29.920     8.970
    30   6 C        3.705    -0.044    21.519     6.632
    31   6 C        2.883    -0.010    28.272     8.717
    32   6 C        3.753    -0.117    22.798     6.809
    33   6 C        3.753    -0.116    22.788     6.807
    34   1 H        0.926     0.054     2.273     2.357
    35   1 H        0.924     0.050     2.320     2.382
    36   1 H        0.925     0.080     1.982     2.201
    37   1 H        0.924     0.047     2.357     2.401
    38   1 H        0.924     0.054     2.266     2.354
    39   1 H        0.925     0.081     1.971     2.196
    40   1 H        0.924     0.052     2.292     2.367
    41   1 H        0.926     0.055     2.263     2.353
    42   1 H        0.926     0.037     2.489     2.467
    43   1 H        0.924     0.057     2.240     2.341
    44   1 H        0.924     0.043     2.415     2.430
    45   1 H        0.925     0.052     2.290     2.367
    46   1 H        0.924     0.054     2.267     2.355
    47   1 H        0.922     0.023     2.688     2.564
    48   1 H        0.924     0.043     2.409     2.427
    49   1 H        0.923     0.032     2.557     2.501
    50   1 H        0.924     0.045     2.389     2.417
    51   1 H        0.924     0.060     2.199     2.319
    52   1 H        0.924     0.053     2.283     2.363
    53   1 H        0.926     0.051     2.309     2.376
    54   1 H        0.926     0.057     2.231     2.336
    55   1 H        0.924     0.054     2.271     2.356
    56   1 H        0.924     0.056     2.247     2.344
    57   1 H        0.925     0.081     1.969     2.195
    58   1 H        0.925     0.080     1.977     2.199
    59   1 H        0.924     0.049     2.327     2.386
    60   1 H        0.924     0.054     2.275     2.359
    61   1 H        0.926     0.050     2.320     2.382
    62   1 H        0.925     0.054     2.276     2.359
    63   1 H        0.923     0.032     2.561     2.503
    64   1 H        0.925     0.058     2.228     2.334
    65   1 H        0.926     0.060     2.198     2.318
    66   1 H        0.925     0.072     2.060     2.245
    67   1 H        0.924     0.080     1.977     2.199
    68   1 H        0.924     0.087     1.907     2.160
    69   1 H        0.925     0.072     2.060     2.244
    70   1 H        0.924     0.072     2.066     2.248
    71   1 H        0.924     0.094     1.844     2.123
    72   1 H        0.860     0.194     1.139     1.672

Wiberg/Mayer (AO) data.
largest (>0.10) Wiberg bond orders for each atom

     #   Z sym  total        # sym  WBO       # sym  WBO       # sym  WBO
 ---------------------------------------------------------------------------
     1   7 N    3.228 --     2 C    2.073    72 H    0.905     3 C    0.134
     2   6 C    3.852 --     1 N    2.073     3 C    1.632
     3   6 C    3.896 --     2 C    1.632     4 C    1.078    14 C    0.963
                             1 N    0.134
     4   6 C    3.943 --    13 C    1.352     5 C    1.332     3 C    1.078
     5   6 C    3.951 --     6 C    1.413     4 C    1.332    34 H    0.958
     6   6 C    3.900 --     5 C    1.413     9 C    1.217     7 O    1.095
     7   8 O    2.249 --     6 C    1.095     8 C    0.980
     8   6 C    3.934 --     7 O    0.980    36 H    0.977    37 H    0.974
                            35 H    0.974
     9   6 C    3.873 --    12 C    1.370     6 C    1.217    10 O    1.108
    10   8 O    2.248 --     9 C    1.108    11 C    0.977
    11   6 C    3.930 --    39 H    0.977    10 O    0.977    40 H    0.973
                            38 H    0.973
    12   6 C    3.962 --    13 C    1.441     9 C    1.370    41 H    0.963
    13   6 C    3.932 --    12 C    1.441     4 C    1.352    42 H    0.967
    14   6 C    3.989 --    15 C    0.995    44 H    0.975     3 C    0.963
                            43 H    0.958
    15   6 C    3.982 --    16 C    0.998    14 C    0.995    46 H    0.973
                            45 H    0.967
    16   6 C    3.974 --    17 N    1.006    15 C    0.998    48 H    0.970
                            47 H    0.953
    17   7 N    3.098 --    30 C    1.017    16 C    1.006    18 C    1.005
    18   6 C    3.967 --    17 N    1.005    19 C    0.973    50 H    0.971
                            49 H    0.959
    19   6 C    3.980 --    20 C    1.014    18 C    0.973    51 H    0.972
                            52 H    0.965
    20   6 C    3.933 --    21 C    1.399    29 C    1.380    19 C    1.014
    21   6 C    3.935 --    22 C    1.419    20 C    1.399    53 H    0.967
    22   6 C    3.954 --    21 C    1.419    23 C    1.381    54 H    0.963
    23   6 C    3.879 --    22 C    1.381    26 C    1.215    24 O    1.107
    24   8 O    2.244 --    23 C    1.107    25 C    0.977
    25   6 C    3.929 --    57 H    0.977    24 O    0.977    55 H    0.972
                            56 H    0.972
    26   6 C    3.886 --    29 C    1.394    23 C    1.215    27 O    1.103
    27   8 O    2.246 --    26 C    1.103    28 C    0.979
    28   6 C    3.932 --    27 O    0.979    58 H    0.977    59 H    0.973
                            60 H    0.973
    29   6 C    3.955 --    26 C    1.394    20 C    1.380    61 H    0.962
    30   6 C    3.973 --    17 N    1.017    64 H    0.978    62 H    0.974
                            63 H    0.966
    31   6 C    3.258 --    33 C    1.118    32 C    1.117    65 H    0.971
    32   6 C    3.976 --    31 C    1.117    66 H    0.977    67 H    0.930
                            68 H    0.927
    33   6 C    3.977 --    31 C    1.118    69 H    0.969    70 H    0.954
                            71 H    0.910
    34   1 H    0.996 --     5 C    0.958
    35   1 H    0.994 --     8 C    0.974
    36   1 H    0.993 --     8 C    0.977
    37   1 H    0.994 --     8 C    0.974
    38   1 H    0.992 --    11 C    0.973
    39   1 H    0.993 --    11 C    0.977
    40   1 H    0.992 --    11 C    0.973
    41   1 H    0.995 --    12 C    0.963
    42   1 H    0.998 --    13 C    0.967
    43   1 H    0.992 --    14 C    0.958
    44   1 H    0.997 --    14 C    0.975
    45   1 H    0.997 --    15 C    0.967
    46   1 H    0.994 --    15 C    0.973
    47   1 H    0.981 --    16 C    0.953
    48   1 H    0.997 --    16 C    0.970
    49   1 H    0.982 --    18 C    0.959
    50   1 H    0.997 --    18 C    0.971
    51   1 H    0.994 --    19 C    0.972
    52   1 H    0.994 --    19 C    0.965
    53   1 H    0.996 --    21 C    0.967
    54   1 H    0.995 --    22 C    0.963
    55   1 H    0.991 --    25 C    0.972
    56   1 H    0.991 --    25 C    0.972
    57   1 H    0.993 --    25 C    0.977
    58   1 H    0.993 --    28 C    0.977
    59   1 H    0.992 --    28 C    0.973
    60   1 H    0.992 --    28 C    0.973
    61   1 H    0.996 --    29 C    0.962
    62   1 H    0.992 --    30 C    0.974
    63   1 H    0.982 --    30 C    0.966
    64   1 H    0.996 --    30 C    0.978
    65   1 H    0.996 --    31 C    0.971
    66   1 H    0.994 --    32 C    0.977
    67   1 H    0.954 --    32 C    0.930
    68   1 H    0.952 --    32 C    0.927
    69   1 H    0.989 --    33 C    0.969
    70   1 H    0.974 --    33 C    0.954
    71   1 H    0.938 --    33 C    0.910
    72   1 H    0.950 --     1 N    0.905
 ---------------------------------------------------------------------------

molecular dipole:
                 x           y           z       tot (Debye)
 q only:       -1.456       1.870       0.592
   full:       -1.347       1.804       0.848       6.116

           -------------------------------------------------
          | TOTAL ENERGY              -99.348246834516 Eh   |
          | GRADIENT NORM               0.003524145892 Eh/α |
          | HOMO-LUMO GAP               1.093905179584 eV   |
           -------------------------------------------------

 * finished run on 2024/04/06 at 11:12:36.276
