   * xtb version 6.6.1 (8d0f1dd) compiled by 'conda@1efc2f54142f' on 2023-08-01
          program call               : xtb struc.xyz --opt loose --input .xc1 --gfn2

   ID    Z sym.   atoms
    1    7 N      1, 17
    2    6 C      2-6, 8, 9, 11-16, 18-23, 25, 26, 28-33
    3    8 O      7, 10, 24, 27
    4    1 H      34-72
constraining bond 9 34 to    5.1400000 Å, actual value:    3.3952757 Å

          :  Hamiltonian                  GFN2-xTB          :
 * total energy  :   -98.8606037 Eh     change       -0.4035485E-08 Eh
 * total energy  :   -99.0385419 Eh     change       -0.1779382E+00 Eh
 * total energy  :   -99.1331792 Eh     change       -0.9463729E-01 Eh
 * total energy  :   -99.1713531 Eh     change       -0.3817389E-01 Eh
 * total energy  :   -99.1867555 Eh     change       -0.1540242E-01 Eh
 * total energy  :   -99.1971014 Eh     change       -0.1034585E-01 Eh
 * total energy  :   -99.2093338 Eh     change       -0.1223247E-01 Eh
 * total energy  :   -99.2217426 Eh     change       -0.1240878E-01 Eh
 * total energy  :   -99.2324121 Eh     change       -0.1066949E-01 Eh
 * total energy  :   -99.2419311 Eh     change       -0.9519026E-02 Eh
 * total energy  :   -99.2511288 Eh     change       -0.2892763E-03 Eh
 * total energy  :   -99.2514034 Eh     change       -0.2745851E-03 Eh
 * total energy  :   -99.2518341 Eh     change       -0.4306247E-03 Eh
 * total energy  :   -99.2521412 Eh     change       -0.3071302E-03 Eh
 * total energy  :   -99.2523453 Eh     change       -0.2041530E-03 Eh
 * total energy  :   -99.2525544 Eh     change       -0.2090383E-03 Eh
 * total energy  :   -99.2526788 Eh     change       -0.1244246E-03 Eh
 * total energy  :   -99.2527530 Eh     change       -0.7423032E-04 Eh
 * total energy  :   -99.2527855 Eh     change       -0.3249393E-04 Eh
   *** GEOMETRY OPTIMIZATION CONVERGED AFTER 28 ITERATIONS ***

 final structure:
================
72
 xtb: 6.6.1 (8d0f1dd)
N           -1.92875631328877        2.82694126824564        2.22245382051619
C           -1.84241913376857        2.12400959753427        1.19178127881192
C           -2.98557555601633        1.88190115458372        0.23781254573098
C           -3.44986523281481        0.43407575750925        0.34976660745119
C           -4.37745654135606       -0.06209968798608       -0.53646636035342
C           -4.85221429950806       -1.34871019700266       -0.51372054998961
O           -5.78403479621746       -1.83217721258233       -1.35949356271544
C           -6.33358256425587       -0.89850583345809       -2.26064049108142
C           -4.33522880250262       -2.24844391001415        0.47147418411287
O           -4.83033775424440       -3.49999865948676        0.43201534294222
C           -4.46511470216015       -4.41307327298639        1.44046880261190
C           -3.40228942265896       -1.75827170692111        1.37462181418691
C           -2.96803972156341       -0.43999787773579        1.32363753424356
C           -2.44901882305184        2.12067667031181       -1.19769378227060
C           -1.50447246771370        1.02226764685894       -1.71617136253864
C           -0.16340083211238        1.04200656354713       -1.09141013230662
N            0.51004157829996       -0.02752548834549       -0.68230249022776
C            1.88962271116601        0.08799264377331       -0.27226421506384
C            2.86021342138216       -0.36042813617957       -1.38195607261213
C            4.27892869577300       -0.15033002406441       -0.93176831622505
C            4.91586210439940        1.06044647994967       -1.14882981824489
C            6.21413307033872        1.26874031429237       -0.70939417566956
C            6.90105668457012        0.26837390476907       -0.03703318912871
O            8.16001118674471        0.35786027864840        0.43108045535402
C            8.88876851371305        1.54529507101597        0.22051325360910
C            6.25388185244016       -0.97671106631149        0.19492340061633
O            6.99318415902672       -1.89255687585513        0.85240824972228
C            6.45052277478541       -3.16713141085883        1.10100742232525
C            4.95537990850921       -1.16116596160613       -0.25278783406844
C           -0.06345123279306       -1.35150852953281       -0.71561826803273
C           -4.17368192582629        2.81457561460843        0.53703388184759
C           -4.89115460286775        2.47737538595714        1.82179418639251
C           -3.87949196453050        4.29143587837719        0.41882828424747
H           -5.68430968837781        2.39541298629825       -1.22803679298034
H           -6.78323847683594       -0.05740452606017       -1.72394653696902
H           -7.09560166515364       -1.42879649406858       -2.82667479046324
H           -5.56518713087940       -0.51331260556589       -2.93871287493831
H           -4.73052128946577       -4.03943239019269        2.43398216080742
H           -5.02996190634047       -5.31934539279350        1.23174441635719
H           -3.39393589063434       -4.63770599957684        1.40938329321097
H           -3.00700947948330       -2.40134384961794        2.14543055818785
H           -2.26282282365578       -0.08931757409987        2.06306773197052
H           -3.30805067705339        2.15800372053514       -1.86752292830795
H           -1.93609683634270        3.08222878867083       -1.23839801569465
H           -1.98726279648341        0.05281840349292       -1.60855320205526
H           -1.36995455912595        1.20699351100637       -2.78998313308432
H           -0.91623395276395        1.62967344399073        0.84901703234773
H            0.37094397539321        1.98063704884001       -1.08199281171600
H            2.05108741996287       -0.52368007980255        0.61961693192918
H            2.10463844845937        1.12755818426411       -0.01627161494327
H            2.66295730103707        0.22843992854558       -2.27933307544191
H            2.69052651576901       -1.41233175601633       -1.61432777857479
H            4.40655862119145        1.85206957118139       -1.67722678023009
H            6.68605934949387        2.21836598778228       -0.90082615981017
H            8.41361263953724        2.39974953466386        0.71210635566941
H            9.00930447267686        1.75724386313260       -0.84605748270136
H            9.86602806321870        1.37074138951387        0.66639590087037
H            7.23252689981378       -3.72213745598130        1.61550959205765
H            5.56665524849017       -3.10877521588152        1.74450597866463
H            6.19362619491095       -3.68277037649308        0.17046839369971
H            4.45884381315593       -2.10489997690308       -0.08942888323653
H           -0.21562025537835       -1.69092960446194       -1.74247041416984
H           -1.02521365446748       -1.36446697880892       -0.19690616522841
H            0.60800050892025       -2.04536907913442       -0.21637582074677
H           -4.99081106201525        2.57408626021053       -0.37380925271605
H           -4.21528574567312        2.65680700288756        2.65806626859908
H           -5.20216263121516        1.43580199802313        1.84601476880128
H           -5.76728241671661        3.10864821622527        1.94581758015940
H           -3.14992518142831        4.57164707740744        1.17848797086445
H           -3.49100993036899        4.55989278349020       -0.55967030679321
H           -4.78534731062630        4.86602159787703        0.59488284014721
H           -1.09402848647363        2.93797920079963        2.78922144484739

          :  Hamiltonian                  GFN2-xTB          :
         :: total energy             -99.252785535833 Eh    ::
         :: gradient norm              0.002414069175 Eh/a0 ::
         :: HOMO-LUMO gap              0.450517898583 eV    ::
         :: SCC energy              -100.614099840892 Eh    ::
         :: -> dispersion             -0.075842193398 Eh    ::
         :: repulsion energy           1.359952820140 Eh    ::

    * Orbital Energies and Occupations

         #    Occupation            Energy/Eh            Energy/eV
      -------------------------------------------------------------
         1        2.0000           -0.8051897             -21.9103
       ...           ...                  ...                  ...
        78        1.9990           -0.5354525             -14.5704
        79        1.9988           -0.5316748             -14.4676
        80        1.9986           -0.5294994             -14.4084
        81        1.9984           -0.5275122             -14.3543
        82        1.9981           -0.5252793             -14.2936
        83        1.9976           -0.5213385             -14.1863
        84        1.9972           -0.5187972             -14.1172
        85        1.9796           -0.4871883             -13.2571
        86        1.9736           -0.4830476             -13.1444
        87        1.9690           -0.4804637             -13.0741
        88        1.8512           -0.4546405             -12.3714
        89        1.8468           -0.4541437             -12.3579
        90        1.2368           -0.4223659             -11.4932 (HOMO)
        91        0.7258           -0.4058097             -11.0426 (LUMO)
        92        0.4044           -0.3929853             -10.6937
        93        0.0224           -0.3437997              -9.3553
        94        0.0029           -0.3114834              -8.4759
        95        0.0029           -0.3110292              -8.4635
        96        0.0025           -0.3086899              -8.3999
        97        0.0016           -0.3022721              -8.2252
        98        0.0000           -0.1861734              -5.0660
        99        0.0000           -0.1810858              -4.9276
       100                         -0.1348965              -3.6707
       101                         -0.0693188              -1.8863
       ...                                ...                  ...
       171                          0.5779847              15.7278
      -------------------------------------------------------------
                  HL-Gap            0.0165562 Eh            0.4505 eV

     #   Z          covCN         q      C6AA      α(0)
     1   7 N        1.774    -0.282    28.126     7.853
     2   6 C        2.824     0.099    25.794     8.322
     3   6 C        3.909     0.012    20.315     6.406
     4   6 C        2.974     0.006    27.881     8.661
     5   6 C        2.006    -0.138    34.911     9.542
     6   6 C        2.878     0.137    25.014     8.199
     7   8 O        1.705    -0.228    17.780     5.693
     8   6 C        3.660     0.029    20.354     6.473
     9   6 C        2.865     0.127    25.207     8.230
    10   8 O        1.705    -0.229    17.792     5.695
    11   6 C        3.646     0.029    20.422     6.495
    12   6 C        2.913    -0.081    30.013     8.983
    13   6 C        2.926    -0.055    29.355     8.885
    14   6 C        3.810    -0.067    21.778     6.643
    15   6 C        3.802    -0.069    21.817     6.650
    16   6 C        2.843     0.005    27.909     8.658
    17   7 N        2.729     0.010    21.078     6.819
    18   6 C        3.756    -0.016    20.914     6.521
    19   6 C        3.808    -0.070    21.841     6.653
    20   6 C        2.969    -0.001    28.043     8.686
    21   6 C        2.922    -0.049    29.221     8.865
    22   6 C        2.914    -0.068    29.687     8.935
    23   6 C        2.865     0.133    25.087     8.210
    24   8 O        1.706    -0.223    17.697     5.680
    25   6 C        3.645     0.025    20.483     6.505
    26   6 C        2.863     0.133    25.095     8.211
    27   8 O        1.706    -0.226    17.741     5.687
    28   6 C        3.645     0.027    20.447     6.499
    29   6 C        2.919    -0.080    29.994     8.981
    30   6 C        3.699    -0.070    22.009     6.709
    31   6 C        3.781     0.007    20.481     6.447
    32   6 C        3.756    -0.119    22.839     6.814
    33   6 C        3.755    -0.120    22.862     6.818
    34   1 H        0.001    -0.051    10.233     5.849
    35   1 H        0.924     0.056     2.242     2.341
    36   1 H        0.925     0.076     2.016     2.221
    37   1 H        0.924     0.051     2.310     2.377
    38   1 H        0.924     0.054     2.275     2.359
    39   1 H        0.925     0.081     1.973     2.197
    40   1 H        0.924     0.047     2.357     2.401
    41   1 H        0.926     0.049     2.333     2.388
    42   1 H        0.926     0.036     2.500     2.472
    43   1 H        0.925     0.068     2.105     2.269
    44   1 H        0.924     0.051     2.311     2.377
    45   1 H        0.925     0.071     2.074     2.252
    46   1 H        0.924     0.081     1.972     2.196
    47   1 H        0.923     0.010     2.884     2.656
    48   1 H        0.926     0.068     2.112     2.272
    49   1 H        0.924     0.067     2.121     2.278
    50   1 H        0.924     0.066     2.125     2.280
    51   1 H        0.924     0.055     2.259     2.350
    52   1 H        0.924     0.056     2.252     2.347
    53   1 H        0.926     0.045     2.390     2.417
    54   1 H        0.926     0.058     2.223     2.332
    55   1 H        0.924     0.054     2.275     2.359
    56   1 H        0.924     0.055     2.253     2.347
    57   1 H        0.925     0.082     1.959     2.189
    58   1 H        0.925     0.081     1.964     2.192
    59   1 H        0.924     0.048     2.346     2.395
    60   1 H        0.924     0.052     2.293     2.368
    61   1 H        0.926     0.047     2.363     2.404
    62   1 H        0.924     0.077     2.012     2.218
    63   1 H        0.924     0.080     1.983     2.202
    64   1 H        0.925     0.079     1.987     2.204
    65   1 H        0.846     0.116     1.661     2.020
    66   1 H        0.925     0.089     1.888     2.149
    67   1 H        0.925     0.050     2.315     2.380
    68   1 H        0.925     0.059     2.205     2.322
    69   1 H        0.925     0.079     1.985     2.203
    70   1 H        0.925     0.046     2.372     2.408
    71   1 H        0.925     0.062     2.176     2.307
    72   1 H        0.860     0.157     1.352     1.821

Wiberg/Mayer (AO) data.
largest (>0.10) Wiberg bond orders for each atom

     #   Z sym  total        # sym  WBO       # sym  WBO       # sym  WBO
 ---------------------------------------------------------------------------
     1   7 N    3.034 --     2 C    1.948    72 H    0.942
     2   6 C    3.909 --     1 N    1.948     3 C    0.979    47 H    0.904
     3   6 C    3.966 --     2 C    0.979    31 C    0.958    14 C    0.957
                             4 C    0.952
     4   6 C    3.915 --     5 C    1.403    13 C    1.361     3 C    0.952
     5   6 C    3.066 --     4 C    1.403     6 C    1.400
     6   6 C    3.863 --     5 C    1.400     9 C    1.185     7 O    1.097
     7   8 O    2.237 --     6 C    1.097     8 C    0.976
     8   6 C    3.923 --    36 H    0.978     7 O    0.976    37 H    0.972
                            35 H    0.971
     9   6 C    3.847 --    12 C    1.387     6 C    1.185    10 O    1.100
    10   8 O    2.244 --     9 C    1.100    11 C    0.975
    11   6 C    3.927 --    39 H    0.977    10 O    0.975    38 H    0.974
                            40 H    0.974
    12   6 C    3.957 --    13 C    1.412     9 C    1.387    41 H    0.960
    13   6 C    3.896 --    12 C    1.412     4 C    1.361    42 H    0.955
    14   6 C    3.968 --    15 C    0.984    44 H    0.973    43 H    0.966
                             3 C    0.957
    15   6 C    3.986 --    16 C    1.060    14 C    0.984    45 H    0.959
                            46 H    0.926
    16   6 C    3.579 --    17 N    1.398    15 C    1.060    48 H    0.957
    17   7 N    3.472 --    16 C    1.398    30 C    0.998    18 C    0.989
    18   6 C    3.956 --    17 N    0.989    50 H    0.968    19 C    0.966
                            49 H    0.964
    19   6 C    3.976 --    20 C    1.008    51 H    0.972    52 H    0.972
                            18 C    0.966
    20   6 C    3.946 --    21 C    1.411    29 C    1.379    19 C    1.008
    21   6 C    3.951 --    22 C    1.416    20 C    1.411    53 H    0.968
    22   6 C    3.960 --    21 C    1.416    23 C    1.384    54 H    0.963
    23   6 C    3.897 --    22 C    1.384    26 C    1.221    24 O    1.109
    24   8 O    2.255 --    23 C    1.109    25 C    0.976
    25   6 C    3.929 --    57 H    0.977    24 O    0.976    55 H    0.973
                            56 H    0.973
    26   6 C    3.900 --    29 C    1.396    23 C    1.221    27 O    1.103
    27   8 O    2.254 --    26 C    1.103    28 C    0.979
    28   6 C    3.933 --    27 O    0.979    58 H    0.977    59 H    0.974
                            60 H    0.973
    29   6 C    3.960 --    26 C    1.396    20 C    1.379    61 H    0.963
    30   6 C    3.957 --    17 N    0.998    64 H    0.978    62 H    0.966
                            63 H    0.961
    31   6 C    3.656 --    32 C    1.025    33 C    1.022     3 C    0.958
                            65 H    0.560
    32   6 C    3.973 --    31 C    1.025    68 H    0.978    67 H    0.977
                            66 H    0.942
    33   6 C    3.978 --    31 C    1.022    70 H    0.979    71 H    0.978
                            69 H    0.950
    34   1 H    0.519 --    65 H    0.404
    35   1 H    0.992 --     8 C    0.971
    36   1 H    0.993 --     8 C    0.978
    37   1 H    0.992 --     8 C    0.972
    38   1 H    0.993 --    11 C    0.974
    39   1 H    0.992 --    11 C    0.977
    40   1 H    0.993 --    11 C    0.974
    41   1 H    0.990 --    12 C    0.960
    42   1 H    0.987 --    13 C    0.955
    43   1 H    0.994 --    14 C    0.966
    44   1 H    0.996 --    14 C    0.973
    45   1 H    0.994 --    15 C    0.959
    46   1 H    0.967 --    15 C    0.926
    47   1 H    0.988 --     2 C    0.904
    48   1 H    0.995 --    16 C    0.957
    49   1 H    0.991 --    18 C    0.964
    50   1 H    0.995 --    18 C    0.968
    51   1 H    0.996 --    19 C    0.972
    52   1 H    0.996 --    19 C    0.972
    53   1 H    0.997 --    21 C    0.968
    54   1 H    0.995 --    22 C    0.963
    55   1 H    0.992 --    25 C    0.973
    56   1 H    0.992 --    25 C    0.973
    57   1 H    0.993 --    25 C    0.977
    58   1 H    0.993 --    28 C    0.977
    59   1 H    0.993 --    28 C    0.974
    60   1 H    0.993 --    28 C    0.973
    61   1 H    0.997 --    29 C    0.963
    62   1 H    0.984 --    30 C    0.966
    63   1 H    0.987 --    30 C    0.961
    64   1 H    0.993 --    30 C    0.978
    65   1 H    0.982 --    31 C    0.560    34 H    0.404
    66   1 H    0.968 --    32 C    0.942
    67   1 H    0.994 --    32 C    0.977
    68   1 H    0.992 --    32 C    0.978
    69   1 H    0.972 --    33 C    0.950
    70   1 H    0.995 --    33 C    0.979
    71   1 H    0.992 --    33 C    0.978
    72   1 H    0.969 --     1 N    0.942
 ---------------------------------------------------------------------------

molecular dipole:
                 x           y           z       tot (Debye)
 q only:        0.534       0.579      -0.460
   full:        0.931       0.390      -0.419       2.777

           -------------------------------------------------
          | TOTAL ENERGY              -99.252785535833 Eh   |
          | GRADIENT NORM               0.002414069175 Eh/α |
          | HOMO-LUMO GAP               0.450517898583 eV   |
           -------------------------------------------------

 * finished run on 2024/04/06 at 11:12:51.040
