   * xtb version 6.6.1 (8d0f1dd) compiled by 'conda@1efc2f54142f' on 2023-08-01
          program call               : xtb struc.xyz --opt loose --input .xc1 --gfn2

   ID    Z sym.   atoms
    1    6 C      1, 3, 5-7, 10, 11, 14
    2    7 N      2, 4, 9, 13
    3    8 O      8, 12
    4    1 H      15-25
constraining bond 7 9 to    3.9200000 Å, actual value:    1.3883974 Å

          :  Hamiltonian                  GFN2-xTB          :
 * total energy  :   -30.8017878 Eh     change       -0.6633627E-10 Eh
 * total energy  :   -34.9220411 Eh     change       -0.4120253E+01 Eh
 * total energy  :   -38.3759095 Eh     change       -0.3453868E+01 Eh
 * total energy  :   -40.5765685 Eh     change       -0.2200659E+01 Eh
 * total energy  :   -41.5262818 Eh     change       -0.9497133E+00 Eh
 * total energy  :   -41.7135841 Eh     change       -0.1873024E+00 Eh
 * total energy  :   -41.7417188 Eh     change       -0.2813468E-01 Eh
 * total energy  :   -41.7813207 Eh     change       -0.3960195E-01 Eh
 * total energy  :   -41.8124779 Eh     change       -0.3115717E-01 Eh
 * total energy  :   -41.8080281 Eh     change        0.4449867E-02 Eh
 * total energy  :   -42.0105558 Eh     change       -0.1086852E-03 Eh
 * total energy  :   -42.0106605 Eh     change       -0.1046502E-03 Eh
 * total energy  :   -42.0107521 Eh     change       -0.9161345E-04 Eh
 * total energy  :   -42.0108611 Eh     change       -0.1089935E-03 Eh
 * total energy  :   -42.0109430 Eh     change       -0.8193544E-04 Eh
 * total energy  :   -42.0110238 Eh     change       -0.8071934E-04 Eh
 * total energy  :   -42.0110498 Eh     change       -0.2601633E-04 Eh
 * total energy  :   -42.0111000 Eh     change       -0.5027182E-04 Eh
 * total energy  :   -42.0111309 Eh     change       -0.3082905E-04 Eh
   *** GEOMETRY OPTIMIZATION CONVERGED AFTER 45 ITERATIONS ***

 final structure:
================
25
 xtb: 6.6.1 (8d0f1dd)
C            3.71680483504207        0.84148083670004        0.08712106275540
N            2.58146325678133       -0.02969390947251       -0.00577447099730
C            2.57924430447236       -1.33773338558550       -0.22056826326102
N            1.32837440463842       -1.79835310189436       -0.22089687541659
C            0.42388389948851       -0.77477075430960       -0.01770638587002
C            1.24168328670917        0.41433209781164        0.15682439819560
C            0.97313978351209        1.66599298400341        0.51876043572916
O            0.71938903461697        2.76772717610839        0.79894791199325
N           -2.63283043689390        0.67884677470665       -0.64413667471479
C           -3.09326576993191        1.99842979335154       -0.29615984844719
C           -1.86055882740103       -0.06315293745456        0.25133606268718
O           -3.18737114491283       -0.39495747589476        0.16886707725886
N           -0.90096914285199       -1.00664685685600        0.02467721267845
C           -1.32072248438587       -2.40678265468230        0.13125394653911
H            3.89750959070505        1.12963450401426        1.12495496719042
H            4.59842109262069        0.33541315780141       -0.29838221156353
H            3.53876132013255        1.74592326746869       -0.49555625820290
H            3.45489010264539       -1.93499893325846       -0.38304719382627
H           -2.32549245024902        2.70315104395930       -0.60782006749914
H           -4.00381366227263        2.18328516427760       -0.86217839770026
H           -3.29723622156930        2.11253094328279        0.76973920223787
H           -0.83183817734573       -2.90830742208416        0.96656840368124
H           -1.11421442441998       -2.92280238243632       -0.80698613548869
H           -2.39756800820685       -2.42245955453600        0.29123578946527
H            1.07274735317639       -2.75784983342103       -0.39990206952434

          :  Hamiltonian                  GFN2-xTB          :
         :: total energy             -42.011130877858 Eh    ::
         :: gradient norm              0.002157867309 Eh/a0 ::
         :: HOMO-LUMO gap              0.895762972460 eV    ::
         :: SCC energy               -42.523397223411 Eh    ::
         :: -> dispersion             -0.020936234216 Eh    ::
         :: repulsion energy           0.512132125558 Eh    ::

    * Orbital Energies and Occupations

         #    Occupation            Energy/Eh            Energy/eV
      -------------------------------------------------------------
         1        2.0000           -0.9036747             -24.5902
       ...           ...                  ...                  ...
        25        2.0000           -0.6733679             -18.3233
        26        2.0000           -0.6614483             -17.9989
        27        2.0000           -0.6600508             -17.9609
        28        2.0000           -0.6417654             -17.4633
        29        2.0000           -0.6357764             -17.3004
        30        2.0000           -0.6268538             -17.0576
        31        2.0000           -0.6204268             -16.8827
        32        2.0000           -0.6158403             -16.7579
        33        2.0000           -0.5875771             -15.9888
        34        2.0000           -0.5810325             -15.8107
        35        2.0000           -0.5655819             -15.3903
        36        1.9996           -0.5238419             -14.2545
        37        1.7250           -0.4717641             -12.8374 (HOMO)
        38        0.1786           -0.4388454             -11.9416 (LUMO)
        39        0.0962           -0.4335982             -11.7988
        40        0.0006           -0.3930310             -10.6949
        41                         -0.3032336              -8.2514
        42                         -0.2768118              -7.5324
        43                         -0.2008082              -5.4643
        44                         -0.1810303              -4.9261
        45                         -0.1643371              -4.4718
        46                         -0.1030960              -2.8054
        47                         -0.0925092              -2.5173
        48                         -0.0479135              -1.3038
       ...                                ...                  ...
        67                          0.9464248              25.7535
      -------------------------------------------------------------
                  HL-Gap            0.0329187 Eh            0.8958 eV

     #   Z          covCN         q      C6AA      α(0)
     1   6 C        3.690    -0.083    22.284     6.755
     2   7 N        2.818     0.044    20.478     6.721
     3   6 C        2.958     0.060    26.644     8.466
     4   7 N        2.784    -0.057    22.339     7.020
     5   6 C        2.966     0.079    26.243     8.403
     6   6 C        3.022    -0.017    28.407     8.743
     7   6 C        1.844     0.222    25.940     8.228
     8   8 O        0.856    -0.143    17.157     5.553
     9   7 N        2.718    -0.036    21.942     6.957
    10   6 C        3.689    -0.053    21.715     6.670
    11   6 C        2.709     0.136    25.007     8.185
    12   8 O        1.753    -0.260    18.295     5.776
    13   7 N        2.730     0.006    21.152     6.831
    14   6 C        3.713    -0.076    22.082     6.714
    15   1 H        0.924     0.100     1.781     2.087
    16   1 H        0.925     0.102     1.763     2.076
    17   1 H        0.924     0.101     1.779     2.086
    18   1 H        0.926     0.118     1.628     1.995
    19   1 H        0.925     0.075     2.027     2.226
    20   1 H        0.925     0.094     1.845     2.124
    21   1 H        0.924     0.070     2.090     2.261
    22   1 H        0.925     0.078     1.997     2.210
    23   1 H        0.924     0.086     1.917     2.165
    24   1 H        0.925     0.125     1.571     1.960
    25   1 H        0.860     0.226     0.981     1.551

Wiberg/Mayer (AO) data.
largest (>0.10) Wiberg bond orders for each atom

     #   Z sym  total        # sym  WBO       # sym  WBO       # sym  WBO
 ---------------------------------------------------------------------------
     1   6 C    3.935 --     2 N    0.997    16 H    0.973    17 H    0.965
                            15 H    0.960
     2   7 N    3.586 --     3 C    1.363     6 C    1.021     1 C    0.997
                             4 N    0.105
     3   6 C    3.852 --     2 N    1.363     4 N    1.322    18 H    0.950
     4   7 N    3.590 --     3 C    1.322     5 C    1.143    25 H    0.914
                             2 N    0.105
     5   6 C    3.832 --    13 N    1.247     4 N    1.143     6 C    1.109
                            11 C    0.117
     6   6 C    3.877 --     7 C    1.464     5 C    1.109     2 N    1.021
                             8 O    0.143
     7   6 C    3.698 --     8 O    2.049     6 C    1.464
     8   8 O    2.316 --     7 C    2.049     6 C    0.143
     9   7 N    3.030 --    10 C    1.011    11 C    1.006    12 O    0.894
    10   6 C    3.954 --     9 N    1.011    21 H    0.972    20 H    0.969
                            19 H    0.965
    11   6 C    3.505 --    13 N    1.177     9 N    1.006    12 O    0.971
                             5 C    0.117
    12   8 O    1.996 --    11 C    0.971     9 N    0.894
    13   7 N    3.599 --     5 C    1.247    11 C    1.177    14 C    0.958
    14   6 C    3.926 --    22 H    0.973    24 H    0.965    23 H    0.964
                            13 N    0.958
    15   1 H    0.984 --     1 C    0.960
    16   1 H    0.989 --     1 C    0.973
    17   1 H    0.987 --     1 C    0.965
    18   1 H    0.983 --     3 C    0.950
    19   1 H    0.994 --    10 C    0.965
    20   1 H    0.989 --    10 C    0.969
    21   1 H    0.991 --    10 C    0.972
    22   1 H    0.992 --    14 C    0.973
    23   1 H    0.989 --    14 C    0.964
    24   1 H    0.983 --    14 C    0.965
    25   1 H    0.947 --     4 N    0.914
 ---------------------------------------------------------------------------

molecular dipole:
                 x           y           z       tot (Debye)
 q only:        2.959      -1.435      -0.236
   full:        3.030      -1.738      -0.139       8.885

           -------------------------------------------------
          | TOTAL ENERGY              -42.011130877858 Eh   |
          | GRADIENT NORM               0.002157867309 Eh/α |
          | HOMO-LUMO GAP               0.895762972460 eV   |
           -------------------------------------------------

 * finished run on 2024/06/05 at 19:58:01.527
