   * xtb version 6.6.1 (8d0f1dd) compiled by 'conda@1efc2f54142f' on 2023-08-01
          program call               : xtb xtbopt.xyz --opt crude --input .xc2 --gfn2

   ID    Z sym.   atoms
    1    6 C      1, 3, 5-7, 10, 11, 14
    2    7 N      2, 4, 9, 13
    3    8 O      8, 12
    4    1 H      15-25
########################################################################
[WARNING] Please study the warnings concerning your input carefully
-1- readin_getIntValue: could not parse ''
########################################################################

          :  Hamiltonian                  GFN2-xTB          :
 * total energy  :   -42.0111698 Eh     change       -0.3630873E-11 Eh
 * total energy  :   -42.0128536 Eh     change       -0.1683763E-02 Eh
 * total energy  :   -42.0151062 Eh     change       -0.2252657E-02 Eh
 * total energy  :   -42.0164813 Eh     change       -0.1375031E-02 Eh
 * total energy  :   -42.0175141 Eh     change       -0.1032878E-02 Eh
 * total energy  :   -42.0183249 Eh     change       -0.8107343E-03 Eh
 * total energy  :   -42.0186414 Eh     change       -0.3164783E-03 Eh
   *** GEOMETRY OPTIMIZATION CONVERGED AFTER 7 ITERATIONS ***

 final structure:
================
25
 xtb: 6.6.1 (8d0f1dd)
C            3.56175118527049        0.94679282503117        0.09853586082182
N            2.48704286620199        0.00452605106055       -0.03301873847348
C            2.60139633606133       -1.31147953128883       -0.17968996815463
N            1.39573135441279       -1.88971865890350       -0.19800148484293
C            0.41917912516068       -0.93023973693297       -0.07399783848081
C            1.11405621213328        0.33181940438632        0.04702788454729
C            0.57946903669038        1.52907243172288        0.25826656193970
O            0.14226495456065        2.59937225696939        0.41048333663264
N           -2.32195873894250        0.79503345538133       -0.55950326812778
C           -2.75878762268776        2.10761899105920       -0.16349772252986
C           -1.75401072601190       -0.11252598019466        0.33420972681447
O           -3.08398182733447       -0.27437697431481        0.07875638324817
N           -0.89146869056659       -1.13981429964071        0.02531909071976
C           -1.38913104909300       -2.50516157312651        0.11250426547478
H            3.64203207273141        1.29821899977891        1.13103010516184
H            4.49751454788741        0.46871475006338       -0.18568008552764
H            3.38698057017772        1.80878331380550       -0.54650997361498
H            3.53101532692843       -1.83587185728084       -0.28732728787152
H           -1.98697168033465        2.82209655850123       -0.43929332143583
H           -3.66008153345814        2.32071737295260       -0.73838454439124
H           -2.98263722018281        2.18610140664330        0.90296525937685
H           -0.92265392499882       -3.04478849649819        0.93764668162410
H           -1.20404420862872       -3.02015635800326       -0.83037348779466
H           -2.46483603853625       -2.46304438361874        0.27491247542550
H            1.22256118665889       -2.87345142595247       -0.34520829264194

          :  Hamiltonian                  GFN2-xTB          :
         :: total energy             -42.018641357034 Eh    ::
         :: gradient norm              0.008385297233 Eh/a0 ::
         :: HOMO-LUMO gap              0.940264147540 eV    ::
         :: SCC energy               -42.533762525991 Eh    ::
         :: -> dispersion             -0.021825968668 Eh    ::
         :: repulsion energy           0.515022399989 Eh    ::

    * Orbital Energies and Occupations

         #    Occupation            Energy/Eh            Energy/eV
      -------------------------------------------------------------
         1        2.0000           -0.9042501             -24.6059
       ...           ...                  ...                  ...
        25        2.0000           -0.6728273             -18.3086
        26        2.0000           -0.6600186             -17.9600
        27        2.0000           -0.6545565             -17.8114
        28        2.0000           -0.6422377             -17.4762
        29        2.0000           -0.6328832             -17.2216
        30        2.0000           -0.6267709             -17.0553
        31        2.0000           -0.6207353             -16.8911
        32        2.0000           -0.6179266             -16.8146
        33        2.0000           -0.5862065             -15.9515
        34        2.0000           -0.5776728             -15.7193
        35        2.0000           -0.5660533             -15.4031
        36        1.9993           -0.5218076             -14.1991
        37        1.7600           -0.4750964             -12.9280 (HOMO)
        38        0.1706           -0.4405424             -11.9878 (LUMO)
        39        0.0697           -0.4330301             -11.7834
        40        0.0004           -0.3918061             -10.6616
        41                         -0.3029025              -8.2424
        42                         -0.2766640              -7.5284
        43                         -0.1923094              -5.2330
        44                         -0.1827451              -4.9727
        45                         -0.1625063              -4.4220
        46                         -0.0956057              -2.6016
        47                         -0.0920478              -2.5047
        48                         -0.0459042              -1.2491
       ...                                ...                  ...
        67                          0.9448903              25.7118
      -------------------------------------------------------------
                  HL-Gap            0.0345541 Eh            0.9403 eV

     #   Z          covCN         q      C6AA      α(0)
     1   6 C        3.690    -0.084    22.299     6.758
     2   7 N        2.811     0.050    20.363     6.702
     3   6 C        2.986     0.060    26.658     8.469
     4   7 N        2.771    -0.054    22.291     7.012
     5   6 C        3.005     0.082    26.158     8.390
     6   6 C        3.028    -0.018    28.429     8.746
     7   6 C        1.843     0.224    25.911     8.223
     8   8 O        0.856    -0.147    17.223     5.564
     9   7 N        2.717    -0.052    22.246     7.005
    10   6 C        3.687    -0.052    21.705     6.669
    11   6 C        2.716     0.127    25.194     8.216
    12   8 O        1.753    -0.257    18.240     5.767
    13   7 N        2.731     0.005    21.169     6.833
    14   6 C        3.707    -0.072    22.025     6.708
    15   1 H        0.924     0.102     1.771     2.081
    16   1 H        0.925     0.103     1.759     2.074
    17   1 H        0.924     0.103     1.761     2.075
    18   1 H        0.926     0.119     1.620     1.991
    19   1 H        0.925     0.083     1.950     2.184
    20   1 H        0.925     0.094     1.836     2.119
    21   1 H        0.924     0.067     2.114     2.274
    22   1 H        0.924     0.079     1.992     2.207
    23   1 H        0.925     0.089     1.889     2.150
    24   1 H        0.925     0.122     1.594     1.974
    25   1 H        0.860     0.226     0.981     1.551

Wiberg/Mayer (AO) data.
largest (>0.10) Wiberg bond orders for each atom

     #   Z sym  total        # sym  WBO       # sym  WBO       # sym  WBO
 ---------------------------------------------------------------------------
     1   6 C    3.934 --     2 N    0.996    16 H    0.972    17 H    0.966
                            15 H    0.959
     2   7 N    3.599 --     3 C    1.363     6 C    1.032     1 C    0.996
                             4 N    0.103
     3   6 C    3.846 --     2 N    1.363     4 N    1.313    18 H    0.951
     4   7 N    3.589 --     3 C    1.313     5 C    1.148    25 H    0.918
                             2 N    0.103
     5   6 C    3.859 --    13 N    1.273     4 N    1.148     6 C    1.106
                            11 C    0.118
     6   6 C    3.887 --     7 C    1.465     5 C    1.106     2 N    1.032
                             8 O    0.141
     7   6 C    3.731 --     8 O    2.040     6 C    1.465
     8   8 O    2.330 --     7 C    2.040     6 C    0.141
     9   7 N    3.021 --    10 C    1.014    11 C    0.997    12 O    0.890
    10   6 C    3.952 --     9 N    1.014    21 H    0.972    20 H    0.965
                            19 H    0.957
    11   6 C    3.504 --    13 N    1.144     9 N    0.997    12 O    0.976
                             5 C    0.118
    12   8 O    1.997 --    11 C    0.976     9 N    0.890
    13   7 N    3.608 --     5 C    1.273    11 C    1.144    14 C    0.965
    14   6 C    3.928 --    22 H    0.972    24 H    0.968    23 H    0.965
                            13 N    0.965
    15   1 H    0.984 --     1 C    0.959
    16   1 H    0.989 --     1 C    0.972
    17   1 H    0.986 --     1 C    0.966
    18   1 H    0.983 --     3 C    0.951
    19   1 H    0.993 --    10 C    0.957
    20   1 H    0.988 --    10 C    0.965
    21   1 H    0.990 --    10 C    0.972
    22   1 H    0.992 --    14 C    0.972
    23   1 H    0.989 --    14 C    0.965
    24   1 H    0.984 --    14 C    0.968
    25   1 H    0.947 --     4 N    0.918
 ---------------------------------------------------------------------------

molecular dipole:
                 x           y           z       tot (Debye)
 q only:        3.098      -1.529      -0.098
   full:        3.173      -1.860      -0.005       9.348

           -------------------------------------------------
          | TOTAL ENERGY              -42.018641357034 Eh   |
          | GRADIENT NORM               0.008385297233 Eh/α |
          | HOMO-LUMO GAP               0.940264147540 eV   |
           -------------------------------------------------

 * finished run on 2024/06/05 at 19:58:01.845
