   * xtb version 6.6.1 (8d0f1dd) compiled by 'conda@1efc2f54142f' on 2023-08-01
          program call               : xtb struc.xyz --opt loose --input .xc1 --gfn2

   ID    Z sym.   atoms
    1    6 C      1, 3, 5-7, 10, 11, 14
    2    7 N      2, 4, 9, 13
    3    8 O      8, 12
    4    1 H      15-25
constraining bond 11 23 to    5.1400000 Å, actual value:    3.1827480 Å

          :  Hamiltonian                  GFN2-xTB          :
 * total energy  :   -14.8875395 Eh     change       -0.6650680E-10 Eh
 * total energy  :   -30.1952871 Eh     change       -0.1530775E+02 Eh
 * total energy  :   -38.0205540 Eh     change       -0.7825267E+01 Eh
 * total energy  :   -41.2915110 Eh     change       -0.3270957E+01 Eh
 * total energy  :   -41.9178507 Eh     change       -0.6263396E+00 Eh
 * total energy  :   -41.9462376 Eh     change       -0.2838694E-01 Eh
 * total energy  :   -41.9514763 Eh     change       -0.5238700E-02 Eh
 * total energy  :   -41.9630078 Eh     change       -0.1153146E-01 Eh
 * total energy  :   -41.9738493 Eh     change       -0.1084154E-01 Eh
 * total energy  :   -41.9823896 Eh     change       -0.8540258E-02 Eh
 * total energy  :   -42.1535277 Eh     change       -0.2530001E-04 Eh
 * total energy  :   -42.1536413 Eh     change       -0.1136422E-03 Eh
 * total energy  :   -42.1537023 Eh     change       -0.6099128E-04 Eh
 * total energy  :   -42.1537712 Eh     change       -0.6892963E-04 Eh
 * total energy  :   -42.1538365 Eh     change       -0.6523414E-04 Eh
 * total energy  :   -42.1538705 Eh     change       -0.3405021E-04 Eh
 * total energy  :   -42.1538962 Eh     change       -0.2569756E-04 Eh
 * total energy  :   -42.1539204 Eh     change       -0.2422461E-04 Eh
 * total energy  :   -42.1539328 Eh     change       -0.1232474E-04 Eh
   *** GEOMETRY OPTIMIZATION CONVERGED AFTER 63 ITERATIONS ***

 final structure:
================
25
 xtb: 6.6.1 (8d0f1dd)
C            3.20272470554972        1.08085555255998        0.02578862366353
N            2.17992294636774        0.07449188255435        0.09220349126664
C            2.36209907581811       -1.26239829123488        0.17670161616249
N            1.23121060289040       -1.92566429342579        0.24561945247805
C            0.26167444496277       -0.98950702822742        0.20105919310436
C            0.83284567211999        0.27775800383437        0.10487026169576
C            0.04711302362304        1.48913435863231        0.01293563060637
O            0.47485647556932        2.61256883070702       -0.06600794080955
N           -1.33176378058133        1.21032165259362        0.01704953273506
C           -2.23808671119771        2.34893401084465       -0.08295841597741
C           -1.95073628869789       -0.00346974437344        0.10381753011117
O           -3.13616023296724       -0.15572124067079        0.08626277326310
N           -1.09584467646853       -1.18906711654654        0.24215219539072
C           -1.65862909359406       -2.35861811024022        0.40246608409352
H            3.72289599713484        1.15190806806690        0.98318078512733
H            3.92891712323565        0.82454511588987       -0.74569437982678
H            2.74758736445913        2.04381738231845       -0.20130409655696
H            3.32632617474896       -1.73195624768245        0.18368468900080
H           -1.63996864186211        3.25707813522535       -0.10645521397212
H           -2.83706507384245        2.27044557720566       -0.99024180833796
H           -2.91140115372627        2.36279670317482        0.77398968515909
H           -1.03461495666322       -3.22868326596350        0.51475447999816
H            0.53350808047125       -4.23902557086731       -1.41684735644322
H           -2.73733611414758       -2.41054289652272        0.41896949011284
H            0.88035655089515       -3.69176292625099       -0.94482468414741

          :  Hamiltonian                  GFN2-xTB          :
         :: total energy             -42.153932756191 Eh    ::
         :: gradient norm              0.003641856371 Eh/a0 ::
         :: HOMO-LUMO gap              1.792252685301 eV    ::
         :: SCC energy               -42.697454022345 Eh    ::
         :: -> dispersion             -0.022661869665 Eh    ::
         :: repulsion energy           0.543409399680 Eh    ::

    * Orbital Energies and Occupations

         #    Occupation            Energy/Eh            Energy/eV
      -------------------------------------------------------------
         1        2.0000           -0.9105659             -24.7778
       ...           ...                  ...                  ...
        25        1.9997           -0.6692361             -18.2108
        26        1.9995           -0.6592251             -17.9384
        27        1.9994           -0.6574227             -17.8894
        28        1.9991           -0.6513818             -17.7250
        29        1.9983           -0.6409739             -17.4418
        30        1.9939           -0.6203740             -16.8812
        31        1.9910           -0.6143022             -16.7160
        32        1.9885           -0.6103918             -16.6096
        33        1.9772           -0.5994365             -16.3115
        34        1.9586           -0.5898107             -16.0496
        35        1.9520           -0.5874481             -15.9853
        36        1.9377           -0.5831981             -15.8696
        37        1.8591           -0.5696099             -15.4999 (HOMO)
        38        0.3416           -0.5037458             -13.7076 (LUMO)
        39        0.0039           -0.4298921             -11.6980
        40        0.0005           -0.3981343             -10.8338
        41        0.0001           -0.3755363             -10.2189
        42        0.0000           -0.3004469              -8.1756
        43                         -0.2255283              -6.1369
        44                         -0.1743816              -4.7452
        45                         -0.1484196              -4.0387
        46                         -0.0855465              -2.3278
        47                         -0.0578582              -1.5744
        48                         -0.0525309              -1.4294
       ...                                ...                  ...
        67                          0.5432626              14.7829
      -------------------------------------------------------------
                  HL-Gap            0.0658641 Eh            1.7923 eV

     #   Z          covCN         q      C6AA      α(0)
     1   6 C        3.690    -0.083    22.292     6.757
     2   7 N        2.841     0.052    20.333     6.697
     3   6 C        3.189     0.095    25.451     8.230
     4   7 N        1.903    -0.199    26.135     7.579
     5   6 C        3.181     0.107    25.235     8.200
     6   6 C        3.115    -0.005    27.981     8.665
     7   6 C        2.762     0.275    22.348     7.742
     8   8 O        0.858    -0.323    20.193     6.025
     9   7 N        2.742    -0.067    22.538     7.051
    10   6 C        3.712    -0.067    21.914     6.689
    11   6 C        2.729     0.314    21.656     7.619
    12   8 O        0.859    -0.314    20.031     6.001
    13   7 N        2.734     0.044    20.472     6.720
    14   6 C        2.806    -0.000    28.019     8.672
    15   1 H        0.924     0.109     1.706     2.043
    16   1 H        0.925     0.106     1.730     2.057
    17   1 H        0.925     0.124     1.584     1.968
    18   1 H        0.926     0.112     1.680     2.027
    19   1 H        0.925     0.124     1.583     1.967
    20   1 H        0.925     0.109     1.706     2.042
    21   1 H        0.925     0.109     1.706     2.043
    22   1 H        0.926     0.150     1.392     1.845
    23   1 H        0.726     0.038     2.606     2.556
    24   1 H        0.926     0.159     1.333     1.806
    25   1 H        0.726     0.031     2.704     2.603

Wiberg/Mayer (AO) data.
largest (>0.10) Wiberg bond orders for each atom

     #   Z sym  total        # sym  WBO       # sym  WBO       # sym  WBO
 ---------------------------------------------------------------------------
     1   6 C    3.911 --     2 N    0.992    17 H    0.962    16 H    0.959
                            15 H    0.951
     2   7 N    3.668 --     3 C    1.286     6 C    1.219     1 C    0.992
     3   6 C    3.917 --     4 N    1.486     2 N    1.286    18 H    0.954
     4   7 N    3.004 --     3 C    1.486     5 C    1.284
     5   6 C    3.915 --     6 C    1.324     4 N    1.284    13 N    1.092
     6   6 C    3.887 --     5 C    1.324     2 N    1.219     7 C    1.062
     7   6 C    3.932 --     8 O    1.720     9 N    1.065     6 C    1.062
     8   8 O    2.023 --     7 C    1.720     9 N    0.123
     9   7 N    3.550 --    11 C    1.182     7 C    1.065    10 C    0.964
                            12 O    0.151     8 O    0.123
    10   6 C    3.886 --     9 N    0.964    19 H    0.962    21 H    0.956
                            20 H    0.955
    11   6 C    3.930 --    12 O    1.747     9 N    1.182    13 N    0.913
    12   8 O    2.071 --    11 C    1.747     9 N    0.151
    13   7 N    3.665 --    14 C    1.500     5 C    1.092    11 C    0.913
    14   6 C    3.568 --    13 N    1.500    22 H    0.951    24 H    0.949
    15   1 H    0.979 --     1 C    0.951
    16   1 H    0.982 --     1 C    0.959
    17   1 H    0.980 --     1 C    0.962
    18   1 H    0.985 --     3 C    0.954
    19   1 H    0.980 --    10 C    0.962
    20   1 H    0.974 --    10 C    0.955
    21   1 H    0.975 --    10 C    0.956
    22   1 H    0.976 --    14 C    0.951
    23   1 H    0.919 --    25 H    0.905
    24   1 H    0.974 --    14 C    0.949
    25   1 H    0.938 --    23 H    0.905
 ---------------------------------------------------------------------------

molecular dipole:
                 x           y           z       tot (Debye)
 q only:        0.816      -1.069       0.161
   full:        1.015      -1.052       0.165       3.739

           -------------------------------------------------
          | TOTAL ENERGY              -42.153932756191 Eh   |
          | GRADIENT NORM               0.003641856371 Eh/α |
          | HOMO-LUMO GAP               1.792252685301 eV   |
           -------------------------------------------------

 * finished run on 2024/06/05 at 20:00:18.532
