   * xtb version 6.6.1 (8d0f1dd) compiled by 'conda@1efc2f54142f' on 2023-08-01
          program call               : xtb xtbopt.xyz --opt crude --input .xc2 --gfn2

   ID    Z sym.   atoms
    1    6 C      1, 3, 5-7, 10, 11, 14
    2    7 N      2, 4, 9, 13
    3    8 O      8, 12
    4    1 H      15-25

          :  Hamiltonian                  GFN2-xTB          :
 * total energy  :   -42.1539340 Eh     change        0.0000000E+00 Eh
 * total energy  :   -42.1540296 Eh     change       -0.9562902E-04 Eh
   *** GEOMETRY OPTIMIZATION CONVERGED AFTER 2 ITERATIONS ***

 final structure:
================
25
 xtb: 6.6.1 (8d0f1dd)
C            3.20220424340213        1.08089077321244        0.02555932589938
N            2.17907577449968        0.07474685524274        0.09274005408643
C            2.36039712461207       -1.26197707248608        0.17724041531629
N            1.22905634214853       -1.92508644681359        0.24545993553533
C            0.26017087941332       -0.98794844374480        0.20291698917515
C            0.83197474435552        0.27865609464283        0.10540261979590
C            0.04692964007061        1.49070818426507        0.01370907913981
O            0.47561768723972        2.61353903262894       -0.06850272122268
N           -1.33234419098218        1.21361526204186        0.02097004515923
C           -2.23874545676892        2.35159106927569       -0.08312837294293
C           -1.95257068700281        0.00095738017755        0.11190585598598
O           -3.13777510859647       -0.15064761846372        0.09360913113669
N           -1.09756474044812       -1.18567443513131        0.24601530940859
C           -1.66140242609744       -2.35534791180096        0.40410855351356
H            3.72293890707261        1.15223877296352        0.98261391077328
H            3.92805341786105        0.82454589230960       -0.74625942800784
H            2.74684481949852        2.04387887486276       -0.20150213659679
H            3.32442475588966       -1.73180737962234        0.18519653756480
H           -1.64098728350948        3.26000433641752       -0.10923430137787
H           -2.83747125825415        2.26974838616147       -0.99042523389887
H           -2.91259372671722        2.36705291221589        0.77338735143586
H           -1.03814131506090       -3.22696323463299        0.51204439169035
H            0.56548272078672       -4.26490855680195       -1.43291679210028
H           -2.73983489272982       -2.40597088927230        0.41794350619464
H            0.87669154341506       -3.70760329604682       -0.94768240776645

          :  Hamiltonian                  GFN2-xTB          :
         :: total energy             -42.154029594582 Eh    ::
         :: gradient norm              0.001601123408 Eh/a0 ::
         :: HOMO-LUMO gap              1.795773253261 eV    ::
         :: SCC energy               -42.697459682480 Eh    ::
         :: -> dispersion             -0.022646284247 Eh    ::
         :: repulsion energy           0.543319938596 Eh    ::

    * Orbital Energies and Occupations

         #    Occupation            Energy/Eh            Energy/eV
      -------------------------------------------------------------
         1        2.0000           -0.9105877             -24.7784
       ...           ...                  ...                  ...
        25        1.9997           -0.6691024             -18.2072
        26        1.9995           -0.6590682             -17.9342
        27        1.9994           -0.6573815             -17.8883
        28        1.9991           -0.6513815             -17.7250
        29        1.9983           -0.6408832             -17.4393
        30        1.9939           -0.6203939             -16.8818
        31        1.9910           -0.6142498             -16.7146
        32        1.9884           -0.6101393             -16.6027
        33        1.9766           -0.5990093             -16.2999
        34        1.9585           -0.5897614             -16.0482
        35        1.9520           -0.5874113             -15.9843
        36        1.9377           -0.5831648             -15.8687
        37        1.8602           -0.5697188             -15.5028 (HOMO)
        38        0.3416           -0.5037254             -13.7071 (LUMO)
        39        0.0039           -0.4298254             -11.6961
        40        0.0005           -0.3980577             -10.8317
        41        0.0001           -0.3754635             -10.2169
        42        0.0000           -0.3003844              -8.1739
        43                         -0.2256792              -6.1410
        44                         -0.1745449              -4.7496
        45                         -0.1483908              -4.0379
        46                         -0.0857945              -2.3346
        47                         -0.0581768              -1.5831
        48                         -0.0524406              -1.4270
       ...                                ...                  ...
        67                          0.5435313              14.7902
      -------------------------------------------------------------
                  HL-Gap            0.0659935 Eh            1.7958 eV

     #   Z          covCN         q      C6AA      α(0)
     1   6 C        3.689    -0.083    22.292     6.757
     2   7 N        2.841     0.052    20.332     6.697
     3   6 C        3.189     0.095    25.448     8.229
     4   7 N        1.903    -0.199    26.144     7.581
     5   6 C        3.181     0.107    25.230     8.200
     6   6 C        3.116    -0.005    27.982     8.665
     7   6 C        2.762     0.275    22.348     7.742
     8   8 O        0.858    -0.323    20.193     6.025
     9   7 N        2.742    -0.067    22.538     7.051
    10   6 C        3.712    -0.067    21.913     6.689
    11   6 C        2.729     0.315    21.654     7.618
    12   8 O        0.859    -0.314    20.028     6.000
    13   7 N        2.734     0.044    20.478     6.721
    14   6 C        2.806     0.000    28.015     8.671
    15   1 H        0.924     0.109     1.706     2.043
    16   1 H        0.925     0.106     1.730     2.057
    17   1 H        0.925     0.124     1.584     1.968
    18   1 H        0.926     0.112     1.681     2.027
    19   1 H        0.925     0.124     1.583     1.968
    20   1 H        0.925     0.109     1.706     2.043
    21   1 H        0.925     0.109     1.706     2.042
    22   1 H        0.926     0.150     1.392     1.845
    23   1 H        0.725     0.039     2.587     2.547
    24   1 H        0.926     0.159     1.334     1.806
    25   1 H        0.725     0.030     2.724     2.613

Wiberg/Mayer (AO) data.
largest (>0.10) Wiberg bond orders for each atom

     #   Z sym  total        # sym  WBO       # sym  WBO       # sym  WBO
 ---------------------------------------------------------------------------
     1   6 C    3.911 --     2 N    0.992    17 H    0.962    16 H    0.959
                            15 H    0.951
     2   7 N    3.668 --     3 C    1.287     6 C    1.219     1 C    0.992
     3   6 C    3.917 --     4 N    1.486     2 N    1.287    18 H    0.954
     4   7 N    3.003 --     3 C    1.486     5 C    1.284
     5   6 C    3.915 --     6 C    1.324     4 N    1.284    13 N    1.092
     6   6 C    3.887 --     5 C    1.324     2 N    1.219     7 C    1.062
     7   6 C    3.932 --     8 O    1.720     9 N    1.065     6 C    1.062
     8   8 O    2.023 --     7 C    1.720     9 N    0.123
     9   7 N    3.550 --    11 C    1.182     7 C    1.065    10 C    0.964
                            12 O    0.151     8 O    0.123
    10   6 C    3.886 --     9 N    0.964    19 H    0.962    21 H    0.956
                            20 H    0.955
    11   6 C    3.930 --    12 O    1.747     9 N    1.182    13 N    0.913
    12   8 O    2.071 --    11 C    1.747     9 N    0.151
    13   7 N    3.664 --    14 C    1.500     5 C    1.092    11 C    0.913
    14   6 C    3.568 --    13 N    1.500    22 H    0.951    24 H    0.949
    15   1 H    0.979 --     1 C    0.951
    16   1 H    0.982 --     1 C    0.959
    17   1 H    0.980 --     1 C    0.962
    18   1 H    0.985 --     3 C    0.954
    19   1 H    0.980 --    10 C    0.962
    20   1 H    0.974 --    10 C    0.955
    21   1 H    0.975 --    10 C    0.956
    22   1 H    0.976 --    14 C    0.951
    23   1 H    0.919 --    25 H    0.906
    24   1 H    0.974 --    14 C    0.949
    25   1 H    0.938 --    23 H    0.906
 ---------------------------------------------------------------------------

molecular dipole:
                 x           y           z       tot (Debye)
 q only:        0.812      -1.071       0.159
   full:        1.012      -1.053       0.165       3.734

           -------------------------------------------------
          | TOTAL ENERGY              -42.154029594582 Eh   |
          | GRADIENT NORM               0.001601123408 Eh/α |
          | HOMO-LUMO GAP               1.795773253261 eV   |
           -------------------------------------------------

 * finished run on 2024/06/05 at 20:00:18.700
