   * xtb version 6.6.1 (8d0f1dd) compiled by 'conda@1efc2f54142f' on 2023-08-01
          program call               : xtb struc.xyz --opt loose --input .xc1 --gfn2

   ID    Z sym.   atoms
    1    6 C      1, 3, 5-7, 10, 11, 14
    2    7 N      2, 4, 9, 13
    3    8 O      8, 12
    4    1 H      15-25
constraining bond 5 13 to    3.9200000 Å, actual value:    1.3391347 Å

          :  Hamiltonian                  GFN2-xTB          :
 * total energy  :   -30.3546688 Eh     change       -0.6650680E-10 Eh
 * total energy  :   -34.5424877 Eh     change       -0.4187819E+01 Eh
 * total energy  :   -37.8921567 Eh     change       -0.3349669E+01 Eh
 * total energy  :   -40.0682206 Eh     change       -0.2176064E+01 Eh
 * total energy  :   -41.1493455 Eh     change       -0.1081125E+01 Eh
 * total energy  :   -41.3681578 Eh     change       -0.2188123E+00 Eh
 * total energy  :   -41.4295969 Eh     change       -0.6143904E-01 Eh
 * total energy  :   -41.4887638 Eh     change       -0.5916696E-01 Eh
 * total energy  :   -41.5592300 Eh     change       -0.7046622E-01 Eh
 * total energy  :   -41.5951518 Eh     change       -0.3592177E-01 Eh
 * total energy  :   -41.9256682 Eh     change       -0.2030898E-03 Eh
 * total energy  :   -41.9258625 Eh     change       -0.1943572E-03 Eh
 * total energy  :   -41.9259999 Eh     change       -0.1373789E-03 Eh
 * total energy  :   -41.9261564 Eh     change       -0.1564741E-03 Eh
 * total energy  :   -41.9262686 Eh     change       -0.1122255E-03 Eh
 * total energy  :   -41.9263894 Eh     change       -0.1208184E-03 Eh
 * total energy  :   -41.9264519 Eh     change       -0.6247737E-04 Eh
 * total energy  :   -41.9264932 Eh     change       -0.4123474E-04 Eh
 * total energy  :   -41.9265196 Eh     change       -0.2646628E-04 Eh
   *** GEOMETRY OPTIMIZATION CONVERGED AFTER 56 ITERATIONS ***

 final structure:
================
25
 xtb: 6.6.1 (8d0f1dd)
C            3.23761474157471        1.03210427718549       -0.61070356836781
N            2.29403337972349        0.16832665681774        0.00893868992149
C            2.45974871261264       -0.93908489625012        0.90833534827551
N            1.54203257780345       -2.00941717031849        0.50662423136650
C            0.97391767121395       -0.89337501288279        1.18035356080849
C            0.94529460582250        0.21004268787220        0.16285296154058
C            0.04492678428649        1.12176991308327       -0.39828047216775
O            0.24674712460723        2.03501654598520       -1.16029251115332
N           -1.38697597568649        0.92236881469731        0.06593439401365
C           -1.98075335830534        2.03524002807859        0.78973954217969
C           -2.07988998444488       -0.06425309642470       -0.32798893179436
O           -3.29975713584169       -0.52040814827031       -0.25726494653005
N           -2.20022777309648       -1.14890407021540       -1.10332530730751
C           -1.77578180292616       -2.46892627182527       -0.75378676820768
H            3.84479042067051        1.54615672833033        0.14094839261501
H            3.90814332326937        0.44709519379993       -1.24526929272015
H            2.70549003186827        1.76942338776795       -1.21037896386683
H            3.34967611010123       -1.09840083254682        1.48577999740003
H           -1.73376351289937        2.95478218482272        0.25567872271554
H           -3.06233498199581        1.91484692779775        0.84662038957853
H           -1.55496610843338        2.07655743800670        1.79400018429921
H           -1.75426193798370       -2.65103139843782        0.32327925377272
H           -0.77148273025299       -2.57953023302783       -1.16512830629245
H           -2.44459385222549       -3.17520650696759       -1.24306670276008
H            1.65280518463487       -2.86695460547620        1.03757172058304

          :  Hamiltonian                  GFN2-xTB          :
         :: total energy             -41.926519622267 Eh    ::
         :: gradient norm              0.003146020513 Eh/a0 ::
         :: HOMO-LUMO gap              0.903968621099 eV    ::
         :: SCC energy               -42.406059045045 Eh    ::
         :: -> dispersion             -0.020781956942 Eh    ::
         :: repulsion energy           0.479298784330 Eh    ::

    * Orbital Energies and Occupations

         #    Occupation            Energy/Eh            Energy/eV
      -------------------------------------------------------------
         1        2.0000           -0.9610912             -26.1526
       ...           ...                  ...                  ...
        25        1.9999           -0.6610711             -17.9887
        26        1.9999           -0.6527967             -17.7635
        27        1.9998           -0.6477083             -17.6250
        28        1.9997           -0.6398300             -17.4107
        29        1.9997           -0.6377165             -17.3531
        30        1.9996           -0.6334038             -17.2358
        31        1.9992           -0.6231896             -16.9579
        32        1.9988           -0.6160041             -16.7623
        33        1.9949           -0.5934489             -16.1486
        34        1.9931           -0.5887022             -16.0194
        35        1.9897           -0.5823574             -15.8468
        36        1.8867           -0.5435388             -14.7904
        37        1.5318           -0.5177801             -14.0895 (HOMO)
        38        0.5729           -0.4845598             -13.1855 (LUMO)
        39        0.0312           -0.4333965             -11.7933
        40        0.0029           -0.3955680             -10.7640
        41        0.0003           -0.3580945              -9.7442
        42        0.0000           -0.2580477              -7.0218
        43        0.0000           -0.2365510              -6.4369
        44                         -0.2143813              -5.8336
        45                         -0.1695310              -4.6132
        46                         -0.1038698              -2.8264
        47                         -0.0824269              -2.2429
        48                         -0.0724205              -1.9707
       ...                                ...                  ...
        67                          0.5978450              16.2682
      -------------------------------------------------------------
                  HL-Gap            0.0332202 Eh            0.9040 eV

     #   Z          covCN         q      C6AA      α(0)
     1   6 C        3.684    -0.077    22.179     6.743
     2   7 N        2.978     0.022    20.868     6.785
     3   6 C        4.122     0.093    18.967     6.186
     4   7 N        2.698    -0.186    25.038     7.432
     5   6 C        3.107    -0.065    29.459     8.893
     6   6 C        3.295     0.022    25.849     8.151
     7   6 C        2.752     0.250    22.793     7.818
     8   8 O        0.857    -0.321    20.165     6.021
     9   7 N        2.723    -0.026    21.752     6.927
    10   6 C        3.705    -0.068    21.963     6.700
    11   6 C        2.714     0.323    21.514     7.593
    12   8 O        1.724    -0.171    16.886     5.548
    13   7 N        2.687     0.003    21.218     6.841
    14   6 C        3.689    -0.067    21.983     6.711
    15   1 H        0.924     0.101     1.772     2.082
    16   1 H        0.924     0.106     1.730     2.057
    17   1 H        0.925     0.115     1.653     2.011
    18   1 H        0.926     0.076     2.019     2.222
    19   1 H        0.924     0.127     1.560     1.953
    20   1 H        0.925     0.108     1.711     2.045
    21   1 H        0.924     0.109     1.705     2.042
    22   1 H        0.924     0.085     1.925     2.170
    23   1 H        0.924     0.120     1.613     1.986
    24   1 H        0.925     0.124     1.581     1.966
    25   1 H        0.860     0.196     1.126     1.662

Wiberg/Mayer (AO) data.
largest (>0.10) Wiberg bond orders for each atom

     #   Z sym  total        # sym  WBO       # sym  WBO       # sym  WBO
 ---------------------------------------------------------------------------
     1   6 C    3.923 --     2 N    1.016    17 H    0.964    16 H    0.945
                            15 H    0.942
     2   7 N    3.412 --     6 C    1.258     1 C    1.016     3 C    0.999
     3   6 C    3.813 --     2 N    0.999    18 H    0.960     4 N    0.920
                             5 C    0.852
     4   7 N    2.926 --     5 C    1.004    25 H    0.929     3 C    0.920
     5   6 C    3.033 --     6 C    1.028     4 N    1.004     3 C    0.852
     6   6 C    3.729 --     2 N    1.258     7 C    1.225     5 C    1.028
     7   6 C    3.825 --     8 O    1.706     6 C    1.225     9 N    0.806
     8   8 O    1.974 --     7 C    1.706
     9   7 N    3.614 --    11 C    1.546    10 C    0.952     7 C    0.806
                            12 O    0.107
    10   6 C    3.904 --    20 H    0.972    21 H    0.961    19 H    0.956
                             9 N    0.952
    11   6 C    3.892 --     9 N    1.546    13 N    1.121    12 O    1.114
    12   8 O    2.179 --    11 C    1.114    13 N    0.845     9 N    0.107
    13   7 N    3.111 --    11 C    1.121    14 C    1.001    12 O    0.845
    14   6 C    3.926 --    13 N    1.001    22 H    0.969    24 H    0.964
                            23 H    0.936
    15   1 H    0.965 --     1 C    0.942
    16   1 H    0.969 --     1 C    0.945
    17   1 H    0.985 --     1 C    0.964
    18   1 H    0.989 --     3 C    0.960
    19   1 H    0.982 --    10 C    0.956
    20   1 H    0.987 --    10 C    0.972
    21   1 H    0.987 --    10 C    0.961
    22   1 H    0.991 --    14 C    0.969
    23   1 H    0.985 --    14 C    0.936
    24   1 H    0.983 --    14 C    0.964
    25   1 H    0.952 --     4 N    0.929
 ---------------------------------------------------------------------------

molecular dipole:
                 x           y           z       tot (Debye)
 q only:        0.454      -0.736       0.528
   full:        0.777      -0.947       0.925       3.902

           -------------------------------------------------
          | TOTAL ENERGY              -41.926519622267 Eh   |
          | GRADIENT NORM               0.003146020513 Eh/α |
          | HOMO-LUMO GAP               0.903968621099 eV   |
           -------------------------------------------------

 * finished run on 2024/06/05 at 20:00:13.163
