   * xtb version 6.6.1 (8d0f1dd) compiled by 'conda@1efc2f54142f' on 2023-08-01
          program call               : xtb struc.xyz --opt loose --input .xc1 --gfn2

   ID    Z sym.   atoms
    1    6 C      1, 3, 5-7, 10, 11, 14
    2    7 N      2, 4, 9, 13
    3    8 O      8, 12
    4    1 H      15-25
constraining bond 4 18 to    2.6866700 Å, actual value:    2.1494719 Å

          :  Hamiltonian                  GFN2-xTB          :
 * total energy  :   -42.7753224 Eh     change       -0.2401990E-09 Eh
 * total energy  :   -44.8400834 Eh     change       -0.2064761E+01 Eh
 * total energy  :   -48.1594756 Eh     change       -0.3319392E+01 Eh
 * total energy  :   -23.6746294 Eh     change        0.2448485E+02 Eh
 * total energy  :   -49.3763920 Eh     change       -0.2570176E+02 Eh
 * total energy  :   -49.3524170 Eh     change        0.2397502E-01 Eh
 * total energy  :   -49.5038348 Eh     change       -0.1514178E+00 Eh
 * total energy  :   -49.5278578 Eh     change       -0.2402294E-01 Eh
 * total energy  :   -49.5411163 Eh     change       -0.1325851E-01 Eh
 * total energy  :   -49.5559550 Eh     change       -0.1483871E-01 Eh
 * total energy  :   -49.7615248 Eh     change       -0.8010180E-04 Eh
 * total energy  :   -49.7616074 Eh     change       -0.8259365E-04 Eh
 * total energy  :   -49.7616405 Eh     change       -0.3313813E-04 Eh
 * total energy  :   -49.7616831 Eh     change       -0.4256566E-04 Eh
 * total energy  :   -49.7617230 Eh     change       -0.3996199E-04 Eh
 * total energy  :   -49.7617529 Eh     change       -0.2980877E-04 Eh
 * total energy  :   -49.7617741 Eh     change       -0.2122072E-04 Eh
 * total energy  :   -49.7617890 Eh     change       -0.1491565E-04 Eh
 * total energy  :   -49.7617995 Eh     change       -0.1047669E-04 Eh
   *** GEOMETRY OPTIMIZATION CONVERGED AFTER 89 ITERATIONS ***

 final structure:
================
25
 xtb: 6.6.1 (8d0f1dd)
C            2.98400883505986        1.08809512915852        0.60848526138743
N            2.27844991706609       -0.01549407392234       -0.04414565072527
C            2.93412212066470       -0.93844531927678       -0.62064418387273
N            3.57280083346394       -1.80366383541859       -1.14025108278097
C            0.19225506086258       -1.24666912833552        0.16829427999540
C            0.85476715295942       -0.06086717275254       -0.00533282368546
C            0.10951832969786        1.17355461256377       -0.20318309685349
O            0.61160511571837        2.26138840353818       -0.41617833305985
N           -1.27010212075238        1.01310302876722       -0.13909754278164
C           -2.10558139216495        2.19069347838648       -0.29614515839539
C           -1.94817846128021       -0.17882075013789        0.03012165362179
O           -3.15179549680943       -0.23423363024843        0.04421039436619
N           -1.15502024737577       -1.31568418671953        0.18541597080134
C           -1.82034020341786       -2.58845472601982        0.36703539902922
H            2.73928363639179        1.09477642328643        1.67120590659693
H            4.05659682015418        0.96394029134471        0.48012785851902
H            2.66416424873287        2.03277867325573        0.16500456766634
H            3.83062782754767       -2.16392819433830       -1.36303263068404
H           -1.45830979013785        3.05786125312401       -0.41143664486001
H           -2.74652687281058        2.07876734455534       -1.17184097066744
H           -2.74492562386785        2.30551985911704        0.58025978360101
H           -1.48139926753617       -3.06531417247657        1.28671118433043
H           -1.61787869494770       -3.24819600536999       -0.47783486392675
H           -2.89272052336303       -2.40554476520671        0.42713611004302
H            0.72501031024335       -2.17692399527422        0.30628623023479

          :  Hamiltonian                  GFN2-xTB          :
         :: total energy             -49.761799465484 Eh    ::
         :: gradient norm              0.002789219941 Eh/a0 ::
         :: HOMO-LUMO gap              2.918971104870 eV    ::
         :: SCC energy               -42.807425141626 Eh    ::
         :: -> dispersion             -0.021664082095 Eh    ::
         :: repulsion energy           1.615273196135 Eh    ::

    * Orbital Energies and Occupations

         #    Occupation            Energy/Eh            Energy/eV
      -------------------------------------------------------------
         1        2.0000           -0.8788971             -23.9160
       ...           ...                  ...                  ...
        25        1.9990           -0.6701737             -18.2364
        26        1.9989           -0.6690945             -18.2070
        27        1.9980           -0.6536785             -17.7875
        28        1.9965           -0.6404021             -17.4262
        29        1.9954           -0.6342911             -17.2599
        30        1.9932           -0.6249250             -17.0051
        31        1.9922           -0.6215422             -16.9130
        32        1.9854           -0.6065819             -16.5059
        33        1.9824           -0.6021107             -16.3843
        34        1.9512           -0.5775300             -15.7154
        35        1.9220           -0.5660176             -15.4021
        36        1.9165           -0.5643429             -15.3566
        37        1.8494           -0.5494849             -14.9522 (HOMO)
        38        0.2366           -0.4422147             -12.0333 (LUMO)
        39        0.1420           -0.4288384             -11.6693
        40        0.0322           -0.3922279             -10.6731
        41        0.0121           -0.3687764             -10.0349
        42        0.0005           -0.2941302              -8.0037
        43        0.0000           -0.2222117              -6.0467
        44        0.0000           -0.1630099              -4.4357
        45        0.0000           -0.1246508              -3.3919
        46                         -0.0616786              -1.6784
        47                         -0.0476507              -1.2966
        48                         -0.0179638              -0.4888
       ...                                ...                  ...
        67                          4.2240117             114.9412
      -------------------------------------------------------------
                  HL-Gap            0.1072702 Eh            2.9190 eV

     #   Z          covCN         q      C6AA      α(0)
     1   6 C        3.709    -0.083    22.236     6.740
     2   7 N        2.732     0.066    20.087     6.656
     3   6 C        1.904     0.162    27.201     8.423
     4   7 N        1.774    -0.148    24.963     7.399
     5   6 C        2.857     0.007    27.865     8.652
     6   6 C        2.925    -0.008    28.216     8.711
     7   6 C        2.770     0.265    22.537     7.775
     8   8 O        0.858    -0.369    21.064     6.153
     9   7 N        2.743    -0.069    22.579     7.057
    10   6 C        3.708    -0.060    21.806     6.675
    11   6 C        2.725     0.313    21.675     7.622
    12   8 O        0.859    -0.352    20.745     6.107
    13   7 N        2.742    -0.014    21.528     6.891
    14   6 C        3.703    -0.075    22.099     6.721
    15   1 H        0.924     0.104     1.749     2.068
    16   1 H        0.925     0.099     1.790     2.092
    17   1 H        0.924     0.142     1.450     1.883
    18   1 H        0.886     0.275     0.791     1.392
    19   1 H        0.925     0.120     1.616     1.988
    20   1 H        0.924     0.108     1.714     2.047
    21   1 H        0.924     0.108     1.713     2.047
    22   1 H        0.925     0.097     1.816     2.108
    23   1 H        0.924     0.097     1.816     2.108
    24   1 H        0.925     0.127     1.559     1.953
    25   1 H        0.926     0.090     1.882     2.145

Wiberg/Mayer (AO) data.
largest (>0.10) Wiberg bond orders for each atom

     #   Z sym  total        # sym  WBO       # sym  WBO       # sym  WBO
 ---------------------------------------------------------------------------
     1   6 C    3.872 --    16 H    0.973    15 H    0.963    17 H    0.941
                             2 N    0.929
     2   7 N    3.593 --     3 C    1.446     6 C    0.984     1 C    0.929
                             4 N    0.182
     3   6 C    3.699 --     4 N    2.166     2 N    1.446
     4   7 N    3.345 --     3 C    2.166    18 H    0.918     2 N    0.182
     5   6 C    3.838 --     6 C    1.489    13 N    1.246    25 H    0.952
     6   6 C    3.795 --     5 C    1.489     7 C    1.078     2 N    0.984
     7   6 C    3.913 --     8 O    1.635     9 N    1.102     6 C    1.078
     8   8 O    1.932 --     7 C    1.635     9 N    0.124
     9   7 N    3.500 --    11 C    1.113     7 C    1.102    10 C    0.977
                             8 O    0.124    12 O    0.123
    10   6 C    3.879 --     9 N    0.977    19 H    0.958    21 H    0.950
                            20 H    0.949
    11   6 C    3.939 --    12 O    1.667     9 N    1.113    13 N    1.070
    12   8 O    1.978 --    11 C    1.667     9 N    0.123    13 N    0.107
    13   7 N    3.542 --     5 C    1.246    11 C    1.070    14 C    0.981
                            12 O    0.107
    14   6 C    3.903 --    13 N    0.981    22 H    0.962    24 H    0.960
                            23 H    0.959
    15   1 H    0.982 --     1 C    0.963
    16   1 H    0.987 --     1 C    0.973
    17   1 H    0.971 --     1 C    0.941
    18   1 H    0.924 --     4 N    0.918
    19   1 H    0.976 --    10 C    0.958
    20   1 H    0.968 --    10 C    0.949
    21   1 H    0.969 --    10 C    0.950
    22   1 H    0.978 --    14 C    0.962
    23   1 H    0.976 --    14 C    0.959
    24   1 H    0.979 --    14 C    0.960
    25   1 H    0.988 --     5 C    0.952
 ---------------------------------------------------------------------------

molecular dipole:
                 x           y           z       tot (Debye)
 q only:        2.388      -1.583       0.045
   full:        2.613      -1.900       0.025       8.213

           -------------------------------------------------
          | TOTAL ENERGY              -49.761799465484 Eh   |
          | GRADIENT NORM               0.002789219941 Eh/α |
          | HOMO-LUMO GAP               2.918971104870 eV   |
           -------------------------------------------------

 * finished run on 2024/06/05 at 19:58:58.880
