   * xtb version 6.6.1 (8d0f1dd) compiled by 'conda@1efc2f54142f' on 2023-08-01
          program call               : xtb xtbopt.xyz --opt crude --input .xc2 --gfn2

   ID    Z sym.   atoms
    1    6 C      1, 3, 5-7, 10, 11, 14
    2    7 N      2, 4, 9, 13
    3    8 O      8, 12
    4    1 H      15-25
########################################################################
[WARNING] Please study the warnings concerning your input carefully
-1- readin_getIntValue: could not parse ''
########################################################################

          :  Hamiltonian                  GFN2-xTB          :
 * total energy  :   -41.1920285 Eh     change       -0.1776357E-12 Eh
 * total energy  :   -42.0568434 Eh     change       -0.8648149E+00 Eh
 * total energy  :   -42.1558022 Eh     change       -0.9895874E-01 Eh
 * total energy  :   -42.1773857 Eh     change       -0.2158353E-01 Eh
 * total energy  :   -42.1818705 Eh     change       -0.4484746E-02 Eh
 * total energy  :   -42.1826625 Eh     change       -0.7920746E-03 Eh
 * total energy  :   -42.1843916 Eh     change       -0.1729112E-02 Eh
 * total energy  :   -42.1854655 Eh     change       -0.1073808E-02 Eh
 * total energy  :   -42.1866161 Eh     change       -0.1150667E-02 Eh
 * total energy  :   -42.1859687 Eh     change        0.6474030E-03 Eh
 * total energy  :   -42.1875396 Eh     change       -0.1570914E-02 Eh
 * total energy  :   -42.1877022 Eh     change       -0.1626148E-03 Eh
 * total energy  :   -42.1878109 Eh     change       -0.1086177E-03 Eh
   *** GEOMETRY OPTIMIZATION CONVERGED AFTER 13 ITERATIONS ***

 final structure:
================
25
 xtb: 6.6.1 (8d0f1dd)
C            2.97835110609598        1.14340084140248        0.58607353455699
N            2.27961409006755        0.02747898848689       -0.04258750695743
C            2.95115431140249       -0.91290524102625       -0.58739186791424
N            3.33260024276816       -2.01547817520536       -0.84322297240357
C            0.20883734375974       -1.22256305684322        0.13489771300431
C            0.86044425887195       -0.02659074204654       -0.02228661023626
C            0.09985986742237        1.20145456430763       -0.20729353601365
O            0.58779118778621        2.29611236731340       -0.41794241443695
N           -1.27771089052828        1.02620860273411       -0.12820600588151
C           -2.12774288852878        2.19687747777106       -0.25791088245714
C           -1.94211682261371       -0.17394793494013        0.03737553337212
O           -3.14490499688500       -0.24035454938159        0.07395491185000
N           -1.13685983724135       -1.30630312387323        0.15920615694890
C           -1.78481325978205       -2.58987470235535        0.32277025181185
H            2.73685755318713        1.16787764830486        1.65011250104868
H            4.05165530090290        1.02028437398704        0.45963563175671
H            2.65620190479772        2.08268053298881        0.13181212817022
H            3.97394881208138       -2.43287085840060       -1.49729322371995
H           -1.49137120630447        3.07310419542062       -0.36629688736002
H           -2.77683707523263        2.09267991504619       -1.12877068237374
H           -2.75986975784114        2.29155539545937        0.62617684085558
H           -1.44440613578854       -3.07184843773950        1.23962894700528
H           -1.56513034467505       -3.23744978940967       -0.52706945483771
H           -2.86009501953305       -2.42441803330769        0.37866283981499
H            0.75497376991044       -2.14687171709401        0.25713667229716

          :  Hamiltonian                  GFN2-xTB          :
         :: total energy             -42.187810866208 Eh    ::
         :: gradient norm              0.007950696963 Eh/a0 ::
         :: HOMO-LUMO gap              2.818370521160 eV    ::
         :: SCC energy               -42.746517393930 Eh    ::
         :: -> dispersion             -0.021710304641 Eh    ::
         :: repulsion energy           0.558584019554 Eh    ::

    * Orbital Energies and Occupations

         #    Occupation            Energy/Eh            Energy/eV
      -------------------------------------------------------------
         1        2.0000           -0.8759874             -23.8368
       ...           ...                  ...                  ...
        25        1.9989           -0.6685606             -18.1925
        26        1.9987           -0.6644745             -18.0813
        27        1.9979           -0.6522145             -17.7477
        28        1.9962           -0.6381195             -17.3641
        29        1.9953           -0.6333496             -17.2343
        30        1.9930           -0.6236981             -16.9717
        31        1.9920           -0.6204868             -16.8843
        32        1.9851           -0.6056467             -16.4805
        33        1.9812           -0.6000752             -16.3289
        34        1.9504           -0.5766655             -15.6919
        35        1.9213           -0.5653483             -15.3839
        36        1.9148           -0.5633908             -15.3306
        37        1.8411           -0.5476463             -14.9022 (HOMO)
        38        0.2577           -0.4440731             -12.0838 (LUMO)
        39        0.1294           -0.4260340             -11.5930
        40        0.0370           -0.3951464             -10.7525
        41        0.0136           -0.3710733             -10.0974
        42        0.0005           -0.2930869              -7.9753
        43        0.0000           -0.2205689              -6.0020
        44        0.0000           -0.1662477              -4.5238
        45        0.0000           -0.1255939              -3.4176
        46        0.0000           -0.0973889              -2.6501
        47                         -0.0570175              -1.5515
        48                         -0.0400924              -1.0910
       ...                                ...                  ...
        67                          0.8537125              23.2307
      -------------------------------------------------------------
                  HL-Gap            0.1035732 Eh            2.8184 eV

     #   Z          covCN         q      C6AA      α(0)
     1   6 C        3.710    -0.080    22.181     6.731
     2   7 N        2.733     0.064    20.129     6.663
     3   6 C        1.881     0.164    27.179     8.420
     4   7 N        1.772    -0.146    24.919     7.392
     5   6 C        2.858     0.006    27.881     8.655
     6   6 C        2.924    -0.007    28.188     8.707
     7   6 C        2.769     0.265    22.534     7.774
     8   8 O        0.858    -0.368    21.046     6.151
     9   7 N        2.742    -0.069    22.584     7.058
    10   6 C        3.708    -0.060    21.800     6.674
    11   6 C        2.725     0.313    21.676     7.622
    12   8 O        0.859    -0.352    20.745     6.107
    13   7 N        2.742    -0.012    21.490     6.885
    14   6 C        3.703    -0.076    22.107     6.723
    15   1 H        0.924     0.103     1.762     2.076
    16   1 H        0.925     0.098     1.806     2.101
    17   1 H        0.924     0.139     1.467     1.894
    18   1 H        0.860     0.267     0.821     1.419
    19   1 H        0.925     0.119     1.619     1.990
    20   1 H        0.924     0.108     1.717     2.049
    21   1 H        0.924     0.108     1.713     2.047
    22   1 H        0.924     0.098     1.807     2.102
    23   1 H        0.924     0.097     1.811     2.105
    24   1 H        0.925     0.127     1.559     1.953
    25   1 H        0.926     0.095     1.828     2.114

Wiberg/Mayer (AO) data.
largest (>0.10) Wiberg bond orders for each atom

     #   Z sym  total        # sym  WBO       # sym  WBO       # sym  WBO
 ---------------------------------------------------------------------------
     1   6 C    3.881 --    16 H    0.973    15 H    0.962     2 N    0.943
                            17 H    0.941
     2   7 N    3.589 --     3 C    1.425     6 C    0.996     1 C    0.943
                             4 N    0.159
     3   6 C    3.673 --     4 N    2.146     2 N    1.425
     4   7 N    3.269 --     3 C    2.146    18 H    0.884     2 N    0.159
     5   6 C    3.832 --     6 C    1.480    13 N    1.250    25 H    0.951
     6   6 C    3.798 --     5 C    1.480     7 C    1.076     2 N    0.996
     7   6 C    3.912 --     8 O    1.636     9 N    1.102     6 C    1.076
     8   8 O    1.932 --     7 C    1.636     9 N    0.124
     9   7 N    3.500 --    11 C    1.113     7 C    1.102    10 C    0.977
                             8 O    0.124    12 O    0.122
    10   6 C    3.880 --     9 N    0.977    19 H    0.958    21 H    0.950
                            20 H    0.950
    11   6 C    3.938 --    12 O    1.666     9 N    1.113    13 N    1.070
    12   8 O    1.975 --    11 C    1.666     9 N    0.122    13 N    0.106
    13   7 N    3.542 --     5 C    1.250    11 C    1.070    14 C    0.981
                            12 O    0.106
    14   6 C    3.902 --    13 N    0.981    22 H    0.961    24 H    0.960
                            23 H    0.959
    15   1 H    0.982 --     1 C    0.962
    16   1 H    0.987 --     1 C    0.973
    17   1 H    0.970 --     1 C    0.941
    18   1 H    0.917 --     4 N    0.884
    19   1 H    0.976 --    10 C    0.958
    20   1 H    0.968 --    10 C    0.950
    21   1 H    0.969 --    10 C    0.950
    22   1 H    0.977 --    14 C    0.961
    23   1 H    0.976 --    14 C    0.959
    24   1 H    0.978 --    14 C    0.960
    25   1 H    0.987 --     5 C    0.951
 ---------------------------------------------------------------------------

molecular dipole:
                 x           y           z       tot (Debye)
 q only:        2.494      -1.637      -0.117
   full:        2.794      -1.823      -0.268       8.505

           -------------------------------------------------
          | TOTAL ENERGY              -42.187810866208 Eh   |
          | GRADIENT NORM               0.007950696963 Eh/α |
          | HOMO-LUMO GAP               2.818370521160 eV   |
           -------------------------------------------------

 * finished run on 2024/06/05 at 19:58:59.388
