   * xtb version 6.6.1 (8d0f1dd) compiled by 'conda@1efc2f54142f' on 2023-08-01
          program call               : xtb struc.xyz --opt loose --input .xc1 --gfn2

   ID    Z sym.   atoms
    1    7 N      1, 17
    2    6 C      2-6, 8, 9, 11-16, 18-23, 25, 26, 28-33
    3    8 O      7, 10, 24, 27
    4    1 H      34-72
constraining bond 27 60 to    3.9000000 Å, actual value:    2.0760275 Å

          :  Hamiltonian                  GFN2-xTB          :
 * total energy  :   -98.8101066 Eh     change       -0.4035485E-08 Eh
 * total energy  :   -99.0146323 Eh     change       -0.2045257E+00 Eh
 * total energy  :   -99.1257802 Eh     change       -0.1111479E+00 Eh
 * total energy  :   -99.1728551 Eh     change       -0.4707489E-01 Eh
 * total energy  :   -99.1949605 Eh     change       -0.2210545E-01 Eh
 * total energy  :   -99.2051151 Eh     change       -0.1015453E-01 Eh
 * total energy  :   -99.2120787 Eh     change       -0.6963600E-02 Eh
 * total energy  :   -99.2219373 Eh     change       -0.9858585E-02 Eh
 * total energy  :   -99.2350813 Eh     change       -0.1314406E-01 Eh
 * total energy  :   -99.2472388 Eh     change       -0.1215749E-01 Eh
 * total energy  :   -99.2863772 Eh     change       -0.1868089E-03 Eh
 * total energy  :   -99.2866213 Eh     change       -0.2441622E-03 Eh
 * total energy  :   -99.2867931 Eh     change       -0.1717840E-03 Eh
 * total energy  :   -99.2869657 Eh     change       -0.1726354E-03 Eh
 * total energy  :   -99.2871428 Eh     change       -0.1770470E-03 Eh
 * total energy  :   -99.2872929 Eh     change       -0.1501556E-03 Eh
 * total energy  :   -99.2873710 Eh     change       -0.7806939E-04 Eh
 * total energy  :   -99.2874234 Eh     change       -0.5234556E-04 Eh
 * total energy  :   -99.2874649 Eh     change       -0.4156977E-04 Eh
   *** GEOMETRY OPTIMIZATION CONVERGED AFTER 70 ITERATIONS ***

 final structure:
================
72
 xtb: 6.6.1 (8d0f1dd)
N           -1.81860955635024        2.74024675509187        2.19476954484665
C           -1.82653179719842        1.96762060258004        1.21458247842866
C           -3.00443138434376        1.76635688253515        0.29954832975651
C           -3.46837809884533        0.31966928958194        0.39075162471510
C           -4.39190774709458       -0.17392469936531       -0.53220394884559
C           -4.85865558153150       -1.47688959934381       -0.46340458097903
O           -5.74953991118913       -2.03050691874902       -1.30779983105092
C           -6.31846092498428       -1.24637489063762       -2.32993556653278
C           -4.38404740175689       -2.33795486396397        0.56626553761142
O           -4.88704938684040       -3.58358697173486        0.55425372425081
C           -4.50657974298205       -4.49180230725288        1.56295749871451
C           -3.46933621200600       -1.83782589384174        1.48196965069136
C           -3.02228158962617       -0.52767796019221        1.39608115882315
C           -2.49913243875346        2.07012903686488       -1.13463095397994
C           -1.51322481314113        1.02928547206600       -1.68541694303787
C           -0.14340518768648        1.19316134348109       -1.15185329934024
N            0.69929320050406        0.23515483364343       -0.88055733598230
C            2.05915719897727        0.53794903219004       -0.50644096310149
C            3.02110357758404        0.38487273813842       -1.69976579983699
C            4.43354976130284        0.32246371486563       -1.19389067330362
C            5.36654231331018        1.32824551364719       -1.40800498967607
C            6.64864169368469        1.23351808257910       -0.88844871465187
C            7.02859931557557        0.14448734564649       -0.10869877585544
O            8.22702845621200       -0.02844385483783        0.46924971318361
C            9.22638397974583        0.95541627561501        0.29990838129072
C            6.06453819684569       -0.87069879021912        0.12922888347395
O            6.44923993390982       -1.90768986667052        0.92638659666810
C            5.62500798503903       -2.73357959026614        1.47779533743876
C            4.80621113894793       -0.78300017818587       -0.44559642639095
C            0.34861768894345       -1.16268283815768       -0.92708796877277
C           -4.21335970911211        2.68896937403380        0.63713305104295
C           -4.78662081525172        2.37541039351626        2.01676690196772
C           -3.88294493030667        4.17618328683806        0.54295220812485
H           -4.76353064281751        0.47331375412441       -1.30917515883263
H           -6.86288947646350       -0.38913364694190       -1.92249920119286
H           -7.01606489131309       -1.90250045704660       -2.84672116358204
H           -5.55997800615586       -0.89749191333121       -3.03819677275374
H           -4.78820461445789       -4.12743829237179        2.55521305129368
H           -5.04912379108254       -5.41028965623978        1.34788662449250
H           -3.43100366574537       -4.69090552171501        1.53788999099230
H           -3.10074483341598       -2.46191879512630        2.27927995003990
H           -2.33158116427924       -0.17053262422092        2.14358400902407
H           -3.35879019314450        2.12012765590188       -1.80182435060284
H           -2.02358917321276        3.05142478645793       -1.14062342487132
H           -1.89854752333802        0.02329965363732       -1.51912416479323
H           -1.44929437787607        1.17772001798701       -2.77102483129879
H           -0.94871732393740        1.37733603092233        0.89731313855770
H            0.23256800765271        2.20521094674151       -1.07551987860331
H            2.35340872770709       -0.17460965858474        0.27086979310467
H            2.12375377660521        1.55151012007378       -0.10743598305017
H            2.89090185491722        1.21303487346175       -2.39842440353585
H            2.79228823835717       -0.54978117217986       -2.21447285784764
H            5.10348435151224        2.19530147257761       -1.99446531526439
H            7.35176606733265        2.02567832741667       -1.08745201977311
H            8.91141545024308        1.91833002125203        0.71103702256402
H            9.49398548037467        1.07396403632334       -0.75374283389307
H           10.08934967676310        0.59095211845523        0.85377830285915
H            6.08924857925543       -3.51026996751373        2.06361727700213
H            4.54773462571592       -2.65323588212439        1.39871006120746
H            2.55192004737620       -1.95628535093988        0.87801703704082
H            4.09085056859128       -1.57305991506815       -0.28546795312900
H            0.36712090711316       -1.53956010716575       -1.94974885360615
H           -0.64301393791826       -1.32663914004630       -0.50800049212242
H            1.07154531347044       -1.72423304616278       -0.32956721124382
H           -4.98762888438336        2.46646485797422       -0.10632647365351
H           -4.05577016889393        2.60672322853024        2.78522216927474
H           -5.06633327653537        1.32789504668042        2.09825300176061
H           -5.67249557057397        2.98063952167744        2.18935002604523
H           -3.07849643356672        4.42734873680769        1.22721766078847
H           -3.60385863750981        4.46917341908985       -0.46563067740114
H           -4.75955600342991        4.75345405773385        0.82418052328466
H           -0.96503069748534        2.81662123595933        2.73842537463711

          :  Hamiltonian                  GFN2-xTB          :
         :: total energy             -99.287464935338 Eh    ::
         :: gradient norm              0.002443509075 Eh/a0 ::
         :: HOMO-LUMO gap              1.278380347666 eV    ::
         :: SCC energy              -100.670076553357 Eh    ::
         :: -> dispersion             -0.095655759904 Eh    ::
         :: repulsion energy           1.381355550310 Eh    ::

    * Orbital Energies and Occupations

         #    Occupation            Energy/Eh            Energy/eV
      -------------------------------------------------------------
         1        2.0000           -0.8562630             -23.3001
       ...           ...                  ...                  ...
        78        1.9973           -0.5336281             -14.5208
        79        1.9972           -0.5329811             -14.5032
        80        1.9966           -0.5297745             -14.4159
        81        1.9957           -0.5259434             -14.3116
        82        1.9937           -0.5200263             -14.1506
        83        1.9928           -0.5178106             -14.0903
        84        1.9914           -0.5150200             -14.0144
        85        1.9907           -0.5138161             -13.9816
        86        1.9702           -0.4952432             -13.4763
        87        1.9376           -0.4832567             -13.1501
        88        1.9062           -0.4765549             -12.9677
        89        1.7983           -0.4635082             -12.6127
        90        1.7224           -0.4577652             -12.4564 (HOMO)
        91        0.4840           -0.4107856             -11.1780 (LUMO)
        92        0.2205           -0.3958026             -10.7703
        93        0.0097           -0.3446273              -9.3778
        94        0.0026           -0.3237262              -8.8090
        95        0.0022           -0.3208867              -8.7318
        96        0.0021           -0.3199985              -8.7076
        97        0.0018           -0.3180345              -8.6542
        98        0.0000           -0.1998715              -5.4388
        99        0.0000           -0.1954636              -5.3188
       100                         -0.1262210              -3.4346
       101                         -0.0727838              -1.9805
       ...                                ...                  ...
       171                          0.5668231              15.4240
      -------------------------------------------------------------
                  HL-Gap            0.0469796 Eh            1.2784 eV

     #   Z          covCN         q      C6AA      α(0)
     1   7 N        1.774    -0.261    27.598     7.779
     2   6 C        2.826     0.102    25.729     8.312
     3   6 C        3.908     0.007    20.401     6.420
     4   6 C        2.974     0.003    27.946     8.671
     5   6 C        2.919    -0.079    29.973     8.978
     6   6 C        2.862     0.132    25.102     8.212
     7   8 O        1.706    -0.222    17.681     5.677
     8   6 C        3.644     0.026    20.480     6.505
     9   6 C        2.864     0.134    25.075     8.208
    10   8 O        1.706    -0.217    17.609     5.666
    11   6 C        3.645     0.023    20.516     6.510
    12   6 C        2.913    -0.068    29.701     8.937
    13   6 C        2.921    -0.047    29.163     8.856
    14   6 C        3.813    -0.066    21.762     6.640
    15   6 C        3.803    -0.070    21.839     6.653
    16   6 C        2.850     0.023    27.495     8.594
    17   7 N        2.729     0.056    20.264     6.686
    18   6 C        3.763    -0.029    21.139     6.554
    19   6 C        3.809    -0.066    21.759     6.640
    20   6 C        2.970     0.013    27.723     8.637
    21   6 C        2.921    -0.036    28.907     8.817
    22   6 C        2.915    -0.065    29.622     8.925
    23   6 C        2.861     0.144    24.870     8.174
    24   8 O        1.705    -0.221    17.669     5.675
    25   6 C        3.645     0.021    20.553     6.516
    26   6 C        2.877     0.106    25.658     8.304
    27   8 O        1.709    -0.073    15.454     5.308
    28   6 C        2.741     0.057    26.698     8.460
    29   6 C        2.923    -0.058    29.438     8.898
    30   6 C        3.703    -0.081    22.204     6.737
    31   6 C        3.853    -0.007    20.675     6.467
    32   6 C        3.756    -0.119    22.830     6.813
    33   6 C        3.755    -0.120    22.857     6.817
    34   1 H        0.926     0.053     2.277     2.360
    35   1 H        0.924     0.056     2.243     2.342
    36   1 H        0.925     0.084     1.935     2.175
    37   1 H        0.924     0.050     2.317     2.380
    38   1 H        0.924     0.059     2.205     2.322
    39   1 H        0.925     0.085     1.932     2.173
    40   1 H        0.924     0.058     2.228     2.334
    41   1 H        0.926     0.062     2.172     2.305
    42   1 H        0.926     0.048     2.339     2.392
    43   1 H        0.925     0.062     2.172     2.305
    44   1 H        0.924     0.057     2.240     2.340
    45   1 H        0.925     0.073     2.053     2.241
    46   1 H        0.924     0.088     1.902     2.157
    47   1 H        0.923     0.013     2.846     2.638
    48   1 H        0.925     0.078     2.000     2.212
    49   1 H        0.924     0.133     1.514     1.924
    50   1 H        0.924     0.058     2.219     2.330
    51   1 H        0.924     0.052     2.296     2.370
    52   1 H        0.924     0.069     2.093     2.263
    53   1 H        0.926     0.060     2.198     2.319
    54   1 H        0.926     0.068     2.109     2.271
    55   1 H        0.924     0.060     2.204     2.322
    56   1 H        0.924     0.061     2.189     2.314
    57   1 H        0.925     0.086     1.914     2.163
    58   1 H        0.926     0.111     1.685     2.030
    59   1 H        0.925     0.126     1.568     1.958
    60   1 H        0.000    -0.673  1308.006    66.130
    61   1 H        0.926     0.110     1.694     2.036
    62   1 H        0.925     0.078     2.004     2.214
    63   1 H        0.925     0.073     2.049     2.239
    64   1 H        0.924     0.139     1.470     1.896
    65   1 H        0.924     0.040     2.452     2.449
    66   1 H        0.925     0.070     2.086     2.259
    67   1 H        0.925     0.037     2.486     2.466
    68   1 H        0.925     0.054     2.273     2.357
    69   1 H        0.925     0.064     2.149     2.293
    70   1 H        0.925     0.036     2.500     2.473
    71   1 H        0.925     0.057     2.231     2.336
    72   1 H        0.860     0.163     1.315     1.797

Wiberg/Mayer (AO) data.
largest (>0.10) Wiberg bond orders for each atom

     #   Z sym  total        # sym  WBO       # sym  WBO       # sym  WBO
 ---------------------------------------------------------------------------
     1   7 N    3.034 --     2 C    1.960    72 H    0.939
     2   6 C    3.936 --     1 N    1.960     3 C    0.992    47 H    0.906
     3   6 C    3.972 --     2 C    0.992     4 C    0.970    14 C    0.956
                            31 C    0.942
     4   6 C    3.932 --    13 C    1.402     5 C    1.373     3 C    0.970
     5   6 C    3.954 --     6 C    1.394     4 C    1.373    34 H    0.957
     6   6 C    3.889 --     5 C    1.394     9 C    1.211     7 O    1.108
     7   8 O    2.252 --     6 C    1.108     8 C    0.977
     8   6 C    3.928 --     7 O    0.977    36 H    0.976    37 H    0.972
                            35 H    0.972
     9   6 C    3.885 --    12 C    1.379     6 C    1.211    10 O    1.117
    10   8 O    2.253 --     9 C    1.117    11 C    0.974
    11   6 C    3.924 --    39 H    0.976    10 O    0.974    38 H    0.971
                            40 H    0.971
    12   6 C    3.952 --    13 C    1.416     9 C    1.379    41 H    0.962
    13   6 C    3.940 --    12 C    1.416     4 C    1.402    42 H    0.961
    14   6 C    3.979 --    15 C    0.989    44 H    0.971    43 H    0.968
                             3 C    0.956
    15   6 C    3.986 --    16 C    1.059    14 C    0.989    45 H    0.954
                            46 H    0.922
    16   6 C    3.737 --    17 N    1.523    15 C    1.059    48 H    0.953
    17   7 N    3.598 --    16 C    1.523    30 C    0.993    18 C    0.983
    18   6 C    3.923 --    17 N    0.983    50 H    0.969    19 C    0.965
                            49 H    0.920
    19   6 C    3.979 --    20 C    1.010    51 H    0.975    18 C    0.965
                            52 H    0.962
    20   6 C    3.957 --    29 C    1.404    21 C    1.391    19 C    1.010
    21   6 C    3.930 --    22 C    1.431    20 C    1.391    53 H    0.966
    22   6 C    3.956 --    21 C    1.431    23 C    1.365    54 H    0.962
    23   6 C    3.892 --    22 C    1.365    26 C    1.231    24 O    1.125
    24   8 O    2.275 --    23 C    1.125    25 C    0.969
    25   6 C    3.923 --    57 H    0.976    55 H    0.973    56 H    0.973
                            24 O    0.969
    26   6 C    3.884 --    29 C    1.374    23 C    1.231    27 O    1.031
    27   8 O    2.468 --    28 C    1.356    26 C    1.031
    28   6 C    3.417 --    27 O    1.356    58 H    0.960    59 H    0.943
    29   6 C    3.903 --    20 C    1.404    26 C    1.374    61 H    0.931
    30   6 C    3.921 --    17 N    0.993    63 H    0.964    62 H    0.959
                            64 H    0.938
    31   6 C    3.968 --    33 C    1.008    32 C    1.008    65 H    0.958
                             3 C    0.942
    32   6 C    3.973 --    31 C    1.008    67 H    0.981    68 H    0.980
                            66 H    0.972
    33   6 C    3.977 --    31 C    1.008    70 H    0.982    71 H    0.979
                            69 H    0.974
    34   1 H    0.996 --     5 C    0.957
    35   1 H    0.991 --     8 C    0.972
    36   1 H    0.992 --     8 C    0.976
    37   1 H    0.992 --     8 C    0.972
    38   1 H    0.990 --    11 C    0.971
    39   1 H    0.992 --    11 C    0.976
    40   1 H    0.990 --    11 C    0.971
    41   1 H    0.994 --    12 C    0.962
    42   1 H    0.997 --    13 C    0.961
    43   1 H    0.995 --    14 C    0.968
    44   1 H    0.996 --    14 C    0.971
    45   1 H    0.993 --    15 C    0.954
    46   1 H    0.976 --    15 C    0.922
    47   1 H    0.981 --     2 C    0.906
    48   1 H    0.994 --    16 C    0.953
    49   1 H    0.979 --    18 C    0.920
    50   1 H    0.995 --    18 C    0.969
    51   1 H    0.996 --    19 C    0.975
    52   1 H    0.992 --    19 C    0.962
    53   1 H    0.995 --    21 C    0.966
    54   1 H    0.993 --    22 C    0.962
    55   1 H    0.992 --    25 C    0.973
    56   1 H    0.992 --    25 C    0.973
    57   1 H    0.992 --    25 C    0.976
    58   1 H    0.986 --    28 C    0.960
    59   1 H    0.984 --    28 C    0.943
    60   1 H    0.128
    61   1 H    0.985 --    29 C    0.931
    62   1 H    0.986 --    30 C    0.959
    63   1 H    0.991 --    30 C    0.964
    64   1 H    0.980 --    30 C    0.938
    65   1 H    0.989 --    31 C    0.958
    66   1 H    0.989 --    32 C    0.972
    67   1 H    0.995 --    32 C    0.981
    68   1 H    0.993 --    32 C    0.980
    69   1 H    0.991 --    33 C    0.974
    70   1 H    0.996 --    33 C    0.982
    71   1 H    0.992 --    33 C    0.979
    72   1 H    0.967 --     1 N    0.939
 ---------------------------------------------------------------------------

molecular dipole:
                 x           y           z       tot (Debye)
 q only:        1.078       1.271      -1.541
   full:        1.399       1.237      -1.659       6.349

           -------------------------------------------------
          | TOTAL ENERGY              -99.287464935338 Eh   |
          | GRADIENT NORM               0.002443509075 Eh/α |
          | HOMO-LUMO GAP               1.278380347666 eV   |
           -------------------------------------------------

 * finished run on 2024/04/06 at 11:14:44.548
