   * xtb version 6.6.1 (8d0f1dd) compiled by 'conda@1efc2f54142f' on 2023-08-01
          program call               : xtb struc.xyz --opt loose --input .xc1 --gfn2

   ID    Z sym.   atoms
    1    7 N      1, 17
    2    6 C      2-6, 8, 9, 11-16, 18-23, 25, 26, 28-33
    3    8 O      7, 10, 24, 27
    4    1 H      34-72
constraining bond 29 58 to    4.7133300 Å, actual value:    3.8977948 Å

          :  Hamiltonian                  GFN2-xTB          :
 * total energy  :   -99.5228862 Eh     change       -0.4035485E-08 Eh
 * total energy  :   -99.6683002 Eh     change       -0.1454139E+00 Eh
 * total energy  :   -99.8132199 Eh     change       -0.1449198E+00 Eh
 * total energy  :   -99.9812476 Eh     change       -0.1680276E+00 Eh
 * total energy  :  -100.3684159 Eh     change       -0.3871684E+00 Eh
 * total energy  :  -100.7803872 Eh     change       -0.4119713E+00 Eh
 * total energy  :  -101.3675689 Eh     change       -0.5871817E+00 Eh
 * total energy  :  -100.7066834 Eh     change        0.6608855E+00 Eh
 * total energy  :  -101.5124988 Eh     change       -0.8058153E+00 Eh
 * total energy  :  -101.4331950 Eh     change        0.7930376E-01 Eh
 * total energy  :  -101.9703281 Eh     change       -0.7015831E-03 Eh
 * total energy  :  -101.9708282 Eh     change       -0.5000646E-03 Eh
 * total energy  :  -101.9712340 Eh     change       -0.4058625E-03 Eh
 * total energy  :  -101.9715413 Eh     change       -0.3072538E-03 Eh
 * total energy  :  -101.9716897 Eh     change       -0.1483748E-03 Eh
 * total energy  :  -101.9718218 Eh     change       -0.1321325E-03 Eh
 * total energy  :  -101.9718848 Eh     change       -0.6302041E-04 Eh
 * total energy  :  -101.9719442 Eh     change       -0.5935598E-04 Eh
 * total energy  :  -101.9719917 Eh     change       -0.4755282E-04 Eh
   *** GEOMETRY OPTIMIZATION CONVERGED AFTER 53 ITERATIONS ***

 final structure:
================
72
 xtb: 6.6.1 (8d0f1dd)
N           -1.93338783769804        2.85913900505790        2.24184012093981
C           -1.89261868604023        2.13740541613770        1.22471523432712
C           -3.03940439770767        1.93037999022998        0.27400308876354
C           -3.49863782166680        0.48186362051677        0.34399880195799
C           -4.41961408882845        0.00200947155855       -0.58943252658686
C           -4.88237616300831       -1.30264792555525       -0.54578596215696
O           -5.77781813257796       -1.84024244843486       -1.39843923821459
C           -6.39476706001408       -1.01760652721917       -2.36081139095197
C           -4.40164474973249       -2.18276520641590        0.46219038447610
O           -4.89884664867717       -3.43401371170313        0.42415043221677
C           -4.54133844984943       -4.34627574841055        1.43657068542732
C           -3.48803104484069       -1.69961752703075        1.38570715354533
C           -3.04655343020818       -0.38364287036307        1.32839862092071
C           -2.48491336781823        2.24399827039520       -1.14083229954506
C           -1.55897675802892        1.15856973379742       -1.71826742259814
C           -0.23437388764517        1.11124496685038       -1.06276718854929
N            0.40793389587646        0.00926366268274       -0.70560632346518
C            1.76047087580757        0.08458077177871       -0.20485243268476
C            2.79860784952713       -0.27508892994225       -1.28413566652122
C            4.17448619710143       -0.10631986487827       -0.72885589283557
C            5.13394146524484        0.62892952987271       -1.30514435846893
C            6.46875148052336        0.84764003476146       -0.82132953538774
C            7.08852565244450        0.18283719766246        0.18159547364397
O            8.31825813719082        0.42552729596254        0.65222982324216
C            9.06555081155643        1.51475404672026        0.15263236435296
C            6.47930191243232       -0.98893807423417        0.93020550262556
O            6.08317615956379       -0.87672497385594        2.06779716870563
C            6.11480736161072       -3.36573642541333        0.78754633239257
C            6.47808513961509       -2.24627850776906        0.13707884263208
C           -0.18271156083893       -1.30142474084740       -0.83568442514635
C           -4.26108767980509        2.84788993822645        0.57675771489712
C           -4.88849160732477        2.51440707628806        1.92796447251510
C           -3.92420533731432        4.33511412427596        0.51662019778003
H           -4.79170022596889        0.66462949865488       -1.35301364815303
H           -6.92025360352228       -0.17934067568347       -1.89367960879059
H           -7.11490965611008       -1.65467481251836       -2.87038179204257
H           -5.67135981135253       -0.63767215399316       -3.08964217299732
H           -4.82352749578866       -3.97654313287116        2.42664068937603
H           -5.09737837184295       -5.25598707383271        1.21899143063522
H           -3.46889431412846       -4.56500575312381        1.41967199657515
H           -3.11999541194033       -2.33836255113035        2.17209906581853
H           -2.36082121260356       -0.03693586820886        2.08580922981573
H           -3.32371992164965        2.37068012998021       -1.82429602151392
H           -1.94447207750629        3.19051842620883       -1.10421953388295
H           -2.06000765698052        0.19258998243061       -1.68408331273814
H           -1.39402482766859        1.41327746741506       -2.77318432558447
H           -0.98481973037128        1.60082130581589        0.88666220810187
H            0.31532610111663        2.03801092549453       -0.98386316875067
H            1.86687237282189       -0.59866511196970        0.64281308992912
H            1.95770640731240        1.09944024994919        0.14805250320347
H            2.65668383252973        0.36351650507232       -2.15809846407511
H            2.65253288491111       -1.31422975556620       -1.59202859845208
H            4.90081551245803        1.14866839611994       -2.22697846306689
H            7.00983378944299        1.63928464124606       -1.32183690781893
H            8.53727892791030        2.45959978618687        0.30172419663946
H            9.29364449031485        1.38363093376024       -0.90837213707561
H            9.98986820259383        1.51853427431868        0.72601772486957
H            6.68738560295202       -2.22436350261575       -0.57471840923247
H            5.82901687210872       -3.34908985827601        1.82549684164515
H            6.11315441029638       -4.32307686415921        0.29474091126732
H            4.34941141487073       -0.60355530142998        0.21171140240963
H           -0.36780843030050       -1.54709805806261       -1.88315596485171
H           -1.12923082669395       -1.35054610187301       -0.29090710302080
H            0.49487663191803       -2.04285010924917       -0.42082615719595
H           -5.00544090244646        2.63831761696753       -0.19994470332490
H           -4.18772136406867        2.73143417038579        2.72770557105383
H           -5.17287378829971        1.46631194084689        1.98166639973489
H           -5.77944828981661        3.11903963514971        2.07475178588555
H           -3.16399803635694        4.57995925054517        1.25190828954610
H           -3.58014527731640        4.63503036826880       -0.46967028417632
H           -4.81631718907884        4.91156515544475        0.74670777835345
H           -1.09112166360365        2.94904487608108        2.80093675223914

          :  Hamiltonian                  GFN2-xTB          :
         :: total energy            -101.971991731154 Eh    ::
         :: gradient norm              0.003975470706 Eh/a0 ::
         :: HOMO-LUMO gap              1.711556935098 eV    ::
         :: SCC energy              -100.745820310456 Eh    ::
         :: -> dispersion             -0.074089516129 Eh    ::
         :: repulsion energy           1.588033189909 Eh    ::

    * Orbital Energies and Occupations

         #    Occupation            Energy/Eh            Energy/eV
      -------------------------------------------------------------
         1        2.0000           -0.8148903             -22.1743
       ...           ...                  ...                  ...
        78        1.9980           -0.5315690             -14.4647
        79        1.9979           -0.5304992             -14.4356
        80        1.9974           -0.5270052             -14.3405
        81        1.9971           -0.5255607             -14.3012
        82        1.9953           -0.5178113             -14.0904
        83        1.9947           -0.5159189             -14.0389
        84        1.9944           -0.5151306             -14.0174
        85        1.9935           -0.5125784             -13.9480
        86        1.9790           -0.4939395             -13.4408
        87        1.9434           -0.4779650             -13.0061
        88        1.9297           -0.4744070             -12.9093
        89        1.8585           -0.4627445             -12.5919
        90        1.8461           -0.4613043             -12.5527 (HOMO)
        91        0.3685           -0.3984058             -10.8412 (LUMO)
        92        0.0874           -0.3731134             -10.1529
        93        0.0130           -0.3422690              -9.3136
        94        0.0106           -0.3390595              -9.2263
        95        0.0032           -0.3200642              -8.7094
        96        0.0026           -0.3170515              -8.6274
        97        0.0001           -0.2677062              -7.2847
        98        0.0000           -0.2395124              -6.5175
        99        0.0000           -0.1944581              -5.2915
       100                         -0.1406768              -3.8280
       101                         -0.0719063              -1.9567
       ...                                ...                  ...
       171                          1.5158154              41.2474
      -------------------------------------------------------------
                  HL-Gap            0.0628986 Eh            1.7116 eV

     #   Z          covCN         q      C6AA      α(0)
     1   7 N        1.774    -0.264    27.683     7.791
     2   6 C        2.827     0.101    25.747     8.315
     3   6 C        3.907     0.006    20.413     6.422
     4   6 C        2.974     0.002    27.968     8.675
     5   6 C        2.920    -0.080    30.000     8.982
     6   6 C        2.862     0.130    25.153     8.221
     7   8 O        1.706    -0.228    17.784     5.694
     8   6 C        3.644     0.027    20.458     6.501
     9   6 C        2.864     0.129    25.168     8.223
    10   8 O        1.706    -0.226    17.755     5.689
    11   6 C        3.645     0.026    20.472     6.503
    12   6 C        2.913    -0.074    29.853     8.960
    13   6 C        2.921    -0.053    29.311     8.878
    14   6 C        3.812    -0.065    21.737     6.636
    15   6 C        3.802    -0.070    21.836     6.653
    16   6 C        2.845     0.010    27.779     8.638
    17   7 N        2.729     0.016    20.980     6.803
    18   6 C        3.758    -0.019    20.958     6.527
    19   6 C        3.805    -0.064    21.724     6.635
    20   6 C        2.894    -0.053    29.316     8.877
    21   6 C        2.893    -0.032    28.798     8.798
    22   6 C        2.893    -0.079    29.971     8.976
    23   6 C        2.839     0.127    25.200     8.227
    24   8 O        1.706    -0.214    17.556     5.657
    25   6 C        3.643     0.022    20.542     6.515
    26   6 C        2.828     0.227    23.240     7.899
    27   8 O        0.857    -0.331    20.347     6.048
    28   6 C        2.848    -0.058    29.445     8.893
    29   6 C        2.893    -0.084    30.110     8.997
    30   6 C        3.699    -0.072    22.040     6.714
    31   6 C        3.853    -0.007    20.673     6.467
    32   6 C        3.756    -0.119    22.831     6.813
    33   6 C        3.755    -0.119    22.843     6.815
    34   1 H        0.926     0.053     2.287     2.365
    35   1 H        0.924     0.055     2.261     2.352
    36   1 H        0.925     0.082     1.956     2.187
    37   1 H        0.924     0.048     2.345     2.395
    38   1 H        0.924     0.057     2.240     2.341
    39   1 H        0.925     0.082     1.955     2.186
    40   1 H        0.924     0.049     2.326     2.385
    41   1 H        0.926     0.054     2.272     2.357
    42   1 H        0.926     0.040     2.445     2.445
    43   1 H        0.925     0.062     2.179     2.308
    44   1 H        0.924     0.055     2.260     2.351
    45   1 H        0.925     0.068     2.113     2.273
    46   1 H        0.924     0.082     1.961     2.190
    47   1 H        0.922     0.007     2.936     2.680
    48   1 H        0.926     0.073     2.052     2.240
    49   1 H        0.924     0.074     2.045     2.236
    50   1 H        0.924     0.069     2.099     2.265
    51   1 H        0.924     0.053     2.280     2.361
    52   1 H        0.924     0.059     2.212     2.326
    53   1 H        0.925     0.050     2.319     2.381
    54   1 H        0.925     0.058     2.227     2.334
    55   1 H        0.924     0.061     2.191     2.315
    56   1 H        0.924     0.059     2.206     2.323
    57   1 H        0.925     0.087     1.912     2.163
    58   1 H        0.931     0.106     1.733     2.059
    59   1 H        0.926     0.081     1.969     2.194
    60   1 H        0.926     0.067     2.116     2.275
    61   1 H        0.926     0.047     2.360     2.402
    62   1 H        0.924     0.078     1.998     2.210
    63   1 H        0.924     0.080     1.976     2.198
    64   1 H        0.925     0.084     1.942     2.179
    65   1 H        0.924     0.038     2.475     2.460
    66   1 H        0.925     0.070     2.091     2.261
    67   1 H        0.925     0.036     2.504     2.475
    68   1 H        0.925     0.052     2.291     2.367
    69   1 H        0.925     0.062     2.175     2.306
    70   1 H        0.925     0.035     2.513     2.479
    71   1 H        0.925     0.056     2.251     2.346
    72   1 H        0.860     0.160     1.334     1.809

Wiberg/Mayer (AO) data.
largest (>0.10) Wiberg bond orders for each atom

     #   Z sym  total        # sym  WBO       # sym  WBO       # sym  WBO
 ---------------------------------------------------------------------------
     1   7 N    3.042 --     2 C    1.960    72 H    0.940
     2   6 C    3.931 --     1 N    1.960     3 C    0.994    47 H    0.899
     3   6 C    3.975 --     2 C    0.994     4 C    0.970    14 C    0.956
                            31 C    0.942
     4   6 C    3.946 --    13 C    1.412     5 C    1.369     3 C    0.970
     5   6 C    3.961 --     6 C    1.400     4 C    1.369    34 H    0.958
     6   6 C    3.903 --     5 C    1.400     9 C    1.219     7 O    1.102
     7   8 O    2.254 --     6 C    1.102     8 C    0.977
     8   6 C    3.931 --     7 O    0.977    36 H    0.976    35 H    0.973
                            37 H    0.973
     9   6 C    3.899 --    12 C    1.390     6 C    1.219    10 O    1.105
    10   8 O    2.253 --     9 C    1.105    11 C    0.977
    11   6 C    3.930 --    39 H    0.977    10 O    0.977    40 H    0.973
                            38 H    0.973
    12   6 C    3.961 --    13 C    1.405     9 C    1.390    41 H    0.963
    13   6 C    3.952 --     4 C    1.412    12 C    1.405    42 H    0.962
    14   6 C    3.973 --    15 C    0.981    44 H    0.972    43 H    0.968
                             3 C    0.956
    15   6 C    3.987 --    16 C    1.061    14 C    0.981    45 H    0.961
                            46 H    0.927
    16   6 C    3.613 --    17 N    1.417    15 C    1.061    48 H    0.956
    17   7 N    3.494 --    16 C    1.417    30 C    0.997    18 C    0.987
    18   6 C    3.951 --    17 N    0.987    19 C    0.969    50 H    0.968
                            49 H    0.962
    19   6 C    3.977 --    20 C    1.027    51 H    0.973    18 C    0.969
                            52 H    0.957
    20   6 C    3.900 --    21 C    1.762    19 C    1.027    61 H    0.953
    21   6 C    3.963 --    20 C    1.762    22 C    1.169    53 H    0.962
    22   6 C    3.893 --    23 C    1.597    21 C    1.169    54 H    0.954
    23   6 C    3.859 --    22 C    1.597    24 O    1.139    26 C    0.931
    24   8 O    2.288 --    23 C    1.139    25 C    0.966
    25   6 C    3.923 --    57 H    0.975    55 H    0.973    56 H    0.971
                            24 O    0.966
    26   6 C    3.876 --    27 O    1.803    29 C    1.036    23 C    0.931
    27   8 O    2.029 --    26 C    1.803
    28   6 C    3.911 --    29 C    1.857    59 H    0.974    60 H    0.973
    29   6 C    3.954 --    28 C    1.857    26 C    1.036    58 H    0.974
    30   6 C    3.956 --    17 N    0.997    64 H    0.977    62 H    0.967
                            63 H    0.961
    31   6 C    3.971 --    33 C    1.009    32 C    1.008    65 H    0.959
                             3 C    0.942
    32   6 C    3.977 --    31 C    1.008    67 H    0.981    68 H    0.981
                            66 H    0.973
    33   6 C    3.981 --    31 C    1.009    70 H    0.983    71 H    0.980
                            69 H    0.976
    34   1 H    0.996 --     5 C    0.958
    35   1 H    0.993 --     8 C    0.973
    36   1 H    0.992 --     8 C    0.976
    37   1 H    0.993 --     8 C    0.973
    38   1 H    0.992 --    11 C    0.973
    39   1 H    0.992 --    11 C    0.977
    40   1 H    0.993 --    11 C    0.973
    41   1 H    0.995 --    12 C    0.963
    42   1 H    0.998 --    13 C    0.962
    43   1 H    0.995 --    14 C    0.968
    44   1 H    0.996 --    14 C    0.972
    45   1 H    0.995 --    15 C    0.961
    46   1 H    0.971 --    15 C    0.927
    47   1 H    0.985 --     2 C    0.899
    48   1 H    0.994 --    16 C    0.956
    49   1 H    0.990 --    18 C    0.962
    50   1 H    0.994 --    18 C    0.968
    51   1 H    0.996 --    19 C    0.973
    52   1 H    0.991 --    19 C    0.957
    53   1 H    0.996 --    21 C    0.962
    54   1 H    0.992 --    22 C    0.954
    55   1 H    0.992 --    25 C    0.973
    56   1 H    0.990 --    25 C    0.971
    57   1 H    0.992 --    25 C    0.975
    58   1 H    0.988 --    29 C    0.974
    59   1 H    0.992 --    28 C    0.974
    60   1 H    0.992 --    28 C    0.973
    61   1 H    0.997 --    20 C    0.953
    62   1 H    0.985 --    30 C    0.967
    63   1 H    0.986 --    30 C    0.961
    64   1 H    0.993 --    30 C    0.977
    65   1 H    0.992 --    31 C    0.959
    66   1 H    0.990 --    32 C    0.973
    67   1 H    0.996 --    32 C    0.981
    68   1 H    0.994 --    32 C    0.981
    69   1 H    0.992 --    33 C    0.976
    70   1 H    0.997 --    33 C    0.983
    71   1 H    0.993 --    33 C    0.980
    72   1 H    0.969 --     1 N    0.940
 ---------------------------------------------------------------------------

molecular dipole:
                 x           y           z       tot (Debye)
 q only:        0.205       0.077      -1.888
   full:        0.685       0.062      -2.178       5.806

           -------------------------------------------------
          | TOTAL ENERGY             -101.971991731154 Eh   |
          | GRADIENT NORM               0.003975470706 Eh/α |
          | HOMO-LUMO GAP               1.711556935098 eV   |
           -------------------------------------------------

 * finished run on 2024/04/06 at 11:14:30.208
