   * xtb version 6.6.1 (8d0f1dd) compiled by 'conda@1efc2f54142f' on 2023-08-01
          program call               : xtb xtbopt.xyz --opt crude --input .xc2 --gfn2

   ID    Z sym.   atoms
    1    7 N      1, 17
    2    6 C      2-6, 8, 9, 11-16, 18-23, 25, 26, 28-33
    3    8 O      7, 10, 24, 27
    4    1 H      34-72
########################################################################
[WARNING] Please study the warnings concerning your input carefully
-1- readin_getIntValue: could not parse ''
########################################################################

          :  Hamiltonian                  GFN2-xTB          :
 * total energy  :   -99.1563081 Eh     change       -0.5826450E-12 Eh
 * total energy  :   -99.3139236 Eh     change       -0.1576155E+00 Eh
 * total energy  :   -99.3158901 Eh     change       -0.1966536E-02 Eh
 * total energy  :   -99.3163684 Eh     change       -0.4782133E-03 Eh
 * total energy  :   -99.3165496 Eh     change       -0.1812189E-03 Eh
   *** GEOMETRY OPTIMIZATION CONVERGED AFTER 5 ITERATIONS ***

 final structure:
================
72
 xtb: 6.6.1 (8d0f1dd)
N           -1.93682188945680        2.86182475124942        2.24125248669575
C           -1.89564405921777        2.14007379613502        1.22405556924969
C           -3.04285646267436        1.93168381639084        0.27411309449881
C           -3.50119358122669        0.48293189991624        0.34392792002432
C           -4.42140984363707        0.00220441687272       -0.58980355023924
C           -4.88319305267269       -1.30283983352894       -0.54612011902048
O           -5.77719510619799       -1.84163502389386       -1.39946901886976
C           -6.39334327157444       -1.02044592831713       -2.36358362665116
C           -4.40271690691247       -2.18210255722189        0.46273042547606
O           -4.89886294831620       -3.43374821744610        0.42483733747612
C           -4.54127556195697       -4.34530242327554        1.43784502316600
C           -3.49017576117175       -1.69793889533600        1.38681266421197
C           -3.04925509215024       -0.38183615401241        1.32903355397875
C           -2.48892796594811        2.24599915408002       -1.14080762077446
C           -1.56123260161198        1.16200424961183       -1.71863466829180
C           -0.23560231499092        1.11605499939098       -1.06479058167082
N            0.40769732740339        0.01491757832160       -0.70778634254318
C            1.76014759248330        0.09050604311832       -0.20736429837164
C            2.79779660973565       -0.27640408534957       -1.28367844380908
C            4.17379351348548       -0.11681433377350       -0.72493025850966
C            5.13693919208220        0.61585530434863       -1.29759622671913
C            6.47261588517436        0.83364192641136       -0.81573807427280
C            7.09128254226420        0.18016577511821        0.19634892135490
O            8.31957868741663        0.42884109529368        0.66591302838880
C            9.06737783614970        1.51324378444281        0.15479575431511
C            6.47734122221403       -0.97439970509054        0.96359647064054
O            6.08601702699682       -0.83491267975649        2.10262126739486
C            6.11835229093650       -3.38570316159492        0.81121929586158
C            6.46017555340636       -2.24127595492979        0.21504421287667
C           -0.18383901627420       -1.29585513112760       -0.83440791961375
C           -4.26545150194766        2.84782078322491        0.57797045805708
C           -4.89113735082592        2.51356314170752        1.92984693466261
C           -3.93078658010998        4.33554388449873        0.51762048871557
H           -4.79370590732959        0.66439033037711       -1.35367836435734
H           -6.92081482949321       -0.18254059794685       -1.89808685141238
H           -7.11166360629414       -1.65883033319408       -2.87405558765054
H           -5.66908172080482       -0.64007895665950       -3.09131034042890
H           -4.82475948040899       -3.97558191297711        2.42754569171042
H           -5.09610519967803       -5.25570387465023        1.22007185102498
H           -3.46856563859196       -4.56285661916227        1.42195663675773
H           -3.12262502583967       -2.33605031363212        2.17392208827987
H           -2.36419838856201       -0.03417371304373        2.08666173318311
H           -3.32777683791643        2.37083325582736       -1.82453798821561
H           -1.95017846535116        3.19352284834093       -1.10444844015199
H           -2.06065454034149        0.19529228075439       -1.68414758732416
H           -1.39767437905120        1.41718254441841       -2.77371740639135
H           -0.98711343736645        1.60514552483572        0.88536007959134
H            0.31360131105154        2.04316555572978       -0.98687425804939
H            1.86538977329020       -0.58831543257380        0.64303454643031
H            1.95945050035303        1.10627698430281        0.14037081516302
H            2.66251028845464        0.36273589220027       -2.15826604932869
H            2.64494546582587       -1.31487075649494       -1.59187618785104
H            4.90495228543253        1.13637204592261       -2.21907897716848
H            7.01611744300562        1.61545745835187       -1.32723968429669
H            8.53814081074314        2.45938762070414        0.29545702013298
H            9.29563627404310        1.37244796685155       -0.90552279656850
H            9.99307146467022        1.52310132037295        0.72659636358717
H            6.76327583318291       -2.20230028902809       -0.81495919967348
H            5.83387025210899       -3.39471474093183        1.85336808190528
H            6.12559039895010       -4.32774309442058        0.29254776573196
H            4.34631901449718       -0.62142424035722        0.21212888748602
H           -0.36916373612693       -1.54385449865673       -1.88126083013221
H           -1.13034955095387       -1.34262324813861       -0.28931746470239
H            0.49287823169268       -2.03715597896246       -0.41771401845245
H           -5.01034137558415        2.63723191317628       -0.19797363826248
H           -4.18995776143969        2.73162027653750        2.72895548883662
H           -5.17415310379783        1.46511297086995        1.98405536189200
H           -5.78279789580697        3.11699408290057        2.07747904783936
H           -3.17025179713080        4.58143285264349        1.25221972186618
H           -3.58819359994314        4.63597778376970       -0.46900590294926
H           -4.82350007342468        4.91065126879905        0.74865563826840
H           -1.09380180992688        2.95296303014922        2.79907543859492

          :  Hamiltonian                  GFN2-xTB          :
         :: total energy             -99.316549585311 Eh    ::
         :: gradient norm              0.007915895162 Eh/a0 ::
         :: HOMO-LUMO gap              1.707206170116 eV    ::
         :: SCC energy              -100.717792318845 Eh    ::
         :: -> dispersion             -0.074086518885 Eh    ::
         :: repulsion energy           1.399767694348 Eh    ::

    * Orbital Energies and Occupations

         #    Occupation            Energy/Eh            Energy/eV
      -------------------------------------------------------------
         1        2.0000           -0.8149824             -22.1768
       ...           ...                  ...                  ...
        78        1.9980           -0.5315307             -14.4637
        79        1.9979           -0.5304789             -14.4351
        80        1.9973           -0.5265480             -14.3281
        81        1.9971           -0.5255368             -14.3006
        82        1.9953           -0.5178077             -14.0903
        83        1.9945           -0.5151587             -14.0182
        84        1.9944           -0.5149896             -14.0136
        85        1.9935           -0.5125639             -13.9476
        86        1.9790           -0.4939400             -13.4408
        87        1.9456           -0.4786172             -13.0238
        88        1.9297           -0.4744174             -12.9096
        89        1.8585           -0.4627414             -12.5918
        90        1.8445           -0.4611298             -12.5480 (HOMO)
        91        0.3682           -0.3983912             -10.8408 (LUMO)
        92        0.0879           -0.3732019             -10.1553
        93        0.0130           -0.3422803              -9.3139
        94        0.0104           -0.3388425              -9.2204
        95        0.0032           -0.3200644              -8.7094
        96        0.0026           -0.3170491              -8.6273
        97        0.0001           -0.2618195              -7.1245
        98        0.0000           -0.2389716              -6.5027
        99        0.0000           -0.1944584              -5.2915
       100                         -0.1406542              -3.8274
       101                         -0.0720762              -1.9613
       ...                                ...                  ...
       171                          0.5876964              15.9920
      -------------------------------------------------------------
                  HL-Gap            0.0627387 Eh            1.7072 eV

     #   Z          covCN         q      C6AA      α(0)
     1   7 N        1.774    -0.264    27.684     7.791
     2   6 C        2.827     0.101    25.747     8.315
     3   6 C        3.907     0.006    20.412     6.422
     4   6 C        2.974     0.002    27.969     8.675
     5   6 C        2.920    -0.080    30.000     8.982
     6   6 C        2.862     0.130    25.153     8.221
     7   8 O        1.706    -0.228    17.784     5.694
     8   6 C        3.644     0.027    20.458     6.501
     9   6 C        2.864     0.129    25.168     8.223
    10   8 O        1.706    -0.226    17.755     5.689
    11   6 C        3.645     0.026    20.471     6.503
    12   6 C        2.913    -0.074    29.853     8.960
    13   6 C        2.921    -0.053    29.311     8.878
    14   6 C        3.812    -0.065    21.737     6.636
    15   6 C        3.802    -0.070    21.837     6.653
    16   6 C        2.845     0.010    27.778     8.638
    17   7 N        2.729     0.016    20.976     6.802
    18   6 C        3.758    -0.019    20.956     6.527
    19   6 C        3.805    -0.064    21.723     6.635
    20   6 C        2.894    -0.052    29.298     8.874
    21   6 C        2.893    -0.032    28.797     8.798
    22   6 C        2.893    -0.079    29.971     8.976
    23   6 C        2.839     0.129    25.168     8.221
    24   8 O        1.706    -0.213    17.537     5.654
    25   6 C        3.643     0.022    20.547     6.516
    26   6 C        2.823     0.232    23.145     7.883
    27   8 O        0.857    -0.332    20.362     6.050
    28   6 C        2.842    -0.056    29.386     8.884
    29   6 C        2.890    -0.052    29.291     8.873
    30   6 C        3.700    -0.072    22.040     6.714
    31   6 C        3.853    -0.007    20.673     6.467
    32   6 C        3.756    -0.119    22.831     6.813
    33   6 C        3.755    -0.119    22.843     6.815
    34   1 H        0.926     0.053     2.287     2.365
    35   1 H        0.924     0.055     2.261     2.352
    36   1 H        0.925     0.082     1.956     2.187
    37   1 H        0.924     0.048     2.345     2.395
    38   1 H        0.924     0.057     2.240     2.341
    39   1 H        0.925     0.082     1.955     2.186
    40   1 H        0.924     0.049     2.327     2.385
    41   1 H        0.926     0.054     2.272     2.357
    42   1 H        0.926     0.040     2.445     2.445
    43   1 H        0.925     0.062     2.179     2.308
    44   1 H        0.924     0.055     2.260     2.351
    45   1 H        0.925     0.068     2.113     2.273
    46   1 H        0.924     0.082     1.960     2.190
    47   1 H        0.922     0.007     2.937     2.680
    48   1 H        0.926     0.073     2.051     2.240
    49   1 H        0.924     0.074     2.045     2.236
    50   1 H        0.924     0.069     2.098     2.265
    51   1 H        0.924     0.053     2.277     2.360
    52   1 H        0.924     0.059     2.211     2.325
    53   1 H        0.925     0.050     2.314     2.379
    54   1 H        0.926     0.058     2.219     2.329
    55   1 H        0.924     0.061     2.185     2.312
    56   1 H        0.924     0.060     2.204     2.322
    57   1 H        0.925     0.087     1.909     2.161
    58   1 H        0.926     0.056     2.247     2.344
    59   1 H        0.926     0.084     1.940     2.178
    60   1 H        0.926     0.070     2.084     2.257
    61   1 H        0.926     0.046     2.372     2.408
    62   1 H        0.924     0.078     1.997     2.210
    63   1 H        0.924     0.080     1.976     2.198
    64   1 H        0.925     0.084     1.942     2.179
    65   1 H        0.924     0.038     2.475     2.460
    66   1 H        0.925     0.070     2.090     2.261
    67   1 H        0.925     0.036     2.505     2.475
    68   1 H        0.925     0.052     2.291     2.367
    69   1 H        0.925     0.062     2.175     2.306
    70   1 H        0.925     0.035     2.513     2.479
    71   1 H        0.925     0.056     2.250     2.346
    72   1 H        0.860     0.160     1.334     1.809

Wiberg/Mayer (AO) data.
largest (>0.10) Wiberg bond orders for each atom

     #   Z sym  total        # sym  WBO       # sym  WBO       # sym  WBO
 ---------------------------------------------------------------------------
     1   7 N    3.042 --     2 C    1.960    72 H    0.940
     2   6 C    3.931 --     1 N    1.960     3 C    0.994    47 H    0.899
     3   6 C    3.975 --     2 C    0.994     4 C    0.970    14 C    0.956
                            31 C    0.942
     4   6 C    3.946 --    13 C    1.412     5 C    1.369     3 C    0.970
     5   6 C    3.961 --     6 C    1.400     4 C    1.369    34 H    0.958
     6   6 C    3.903 --     5 C    1.400     9 C    1.219     7 O    1.102
     7   8 O    2.254 --     6 C    1.102     8 C    0.977
     8   6 C    3.931 --     7 O    0.977    36 H    0.976    35 H    0.973
                            37 H    0.973
     9   6 C    3.899 --    12 C    1.390     6 C    1.219    10 O    1.105
    10   8 O    2.253 --     9 C    1.105    11 C    0.977
    11   6 C    3.930 --    39 H    0.977    10 O    0.977    40 H    0.973
                            38 H    0.973
    12   6 C    3.961 --    13 C    1.405     9 C    1.390    41 H    0.963
    13   6 C    3.952 --     4 C    1.412    12 C    1.405    42 H    0.962
    14   6 C    3.972 --    15 C    0.981    44 H    0.972    43 H    0.968
                             3 C    0.956
    15   6 C    3.987 --    16 C    1.061    14 C    0.981    45 H    0.961
                            46 H    0.927
    16   6 C    3.613 --    17 N    1.418    15 C    1.061    48 H    0.956
    17   7 N    3.494 --    16 C    1.418    30 C    0.997    18 C    0.987
    18   6 C    3.951 --    17 N    0.987    19 C    0.969    50 H    0.968
                            49 H    0.962
    19   6 C    3.977 --    20 C    1.027    51 H    0.973    18 C    0.969
                            52 H    0.957
    20   6 C    3.899 --    21 C    1.761    19 C    1.027    61 H    0.953
    21   6 C    3.962 --    20 C    1.761    22 C    1.170    53 H    0.962
    22   6 C    3.893 --    23 C    1.595    21 C    1.170    54 H    0.954
    23   6 C    3.860 --    22 C    1.595    24 O    1.140    26 C    0.932
    24   8 O    2.289 --    23 C    1.140    25 C    0.965
    25   6 C    3.923 --    57 H    0.975    55 H    0.973    56 H    0.971
                            24 O    0.965
    26   6 C    3.879 --    27 O    1.795    29 C    1.048    23 C    0.932
    27   8 O    2.023 --    26 C    1.795
    28   6 C    3.914 --    29 C    1.860    60 H    0.973    59 H    0.970
    29   6 C    3.956 --    28 C    1.860    26 C    1.048    58 H    0.966
    30   6 C    3.956 --    17 N    0.997    64 H    0.977    62 H    0.967
                            63 H    0.961
    31   6 C    3.971 --    33 C    1.009    32 C    1.008    65 H    0.959
                             3 C    0.942
    32   6 C    3.977 --    31 C    1.008    67 H    0.981    68 H    0.981
                            66 H    0.973
    33   6 C    3.981 --    31 C    1.009    70 H    0.983    71 H    0.980
                            69 H    0.976
    34   1 H    0.996 --     5 C    0.958
    35   1 H    0.993 --     8 C    0.973
    36   1 H    0.992 --     8 C    0.976
    37   1 H    0.993 --     8 C    0.973
    38   1 H    0.992 --    11 C    0.973
    39   1 H    0.992 --    11 C    0.977
    40   1 H    0.993 --    11 C    0.973
    41   1 H    0.995 --    12 C    0.963
    42   1 H    0.998 --    13 C    0.962
    43   1 H    0.995 --    14 C    0.968
    44   1 H    0.996 --    14 C    0.972
    45   1 H    0.995 --    15 C    0.961
    46   1 H    0.971 --    15 C    0.927
    47   1 H    0.985 --     2 C    0.899
    48   1 H    0.994 --    16 C    0.956
    49   1 H    0.990 --    18 C    0.962
    50   1 H    0.994 --    18 C    0.968
    51   1 H    0.996 --    19 C    0.973
    52   1 H    0.990 --    19 C    0.957
    53   1 H    0.996 --    21 C    0.962
    54   1 H    0.992 --    22 C    0.954
    55   1 H    0.992 --    25 C    0.973
    56   1 H    0.990 --    25 C    0.971
    57   1 H    0.992 --    25 C    0.975
    58   1 H    0.996 --    29 C    0.966
    59   1 H    0.992 --    28 C    0.970
    60   1 H    0.992 --    28 C    0.973
    61   1 H    0.997 --    20 C    0.953
    62   1 H    0.985 --    30 C    0.967
    63   1 H    0.986 --    30 C    0.961
    64   1 H    0.993 --    30 C    0.977
    65   1 H    0.992 --    31 C    0.959
    66   1 H    0.990 --    32 C    0.973
    67   1 H    0.996 --    32 C    0.981
    68   1 H    0.994 --    32 C    0.981
    69   1 H    0.992 --    33 C    0.976
    70   1 H    0.997 --    33 C    0.983
    71   1 H    0.993 --    33 C    0.980
    72   1 H    0.969 --     1 N    0.940
 ---------------------------------------------------------------------------

molecular dipole:
                 x           y           z       tot (Debye)
 q only:        0.189       0.071      -1.854
   full:        0.677       0.041      -2.169       5.776

           -------------------------------------------------
          | TOTAL ENERGY              -99.316549585311 Eh   |
          | GRADIENT NORM               0.007915895162 Eh/α |
          | HOMO-LUMO GAP               1.707206170116 eV   |
           -------------------------------------------------

 * finished run on 2024/04/06 at 11:14:31.317
