   * xtb version 6.6.1 (8d0f1dd) compiled by 'conda@1efc2f54142f' on 2023-08-01
          program call               : xtb struc.xyz --opt loose --input .xc1 --gfn2

   ID    Z sym.   atoms
    1    6 C      1, 3, 5-7, 10, 11, 14
    2    7 N      2, 4, 9, 13
    3    8 O      8, 12
    4    1 H      15-25
constraining bond 2 8 to    5.6800000 Å, actual value:    3.0543308 Å

          :  Hamiltonian                  GFN2-xTB          :
 * total energy  :   -29.9355774 Eh     change       -0.6633627E-10 Eh
 * total energy  :   -34.4673392 Eh     change       -0.4531762E+01 Eh
 * total energy  :   -37.8475508 Eh     change       -0.3380212E+01 Eh
 * total energy  :   -40.0844938 Eh     change       -0.2236943E+01 Eh
 * total energy  :   -41.2609959 Eh     change       -0.1176502E+01 Eh
 * total energy  :   -41.6163842 Eh     change       -0.3553883E+00 Eh
 * total energy  :   -41.6584329 Eh     change       -0.4204873E-01 Eh
 * total energy  :   -41.6864317 Eh     change       -0.2799876E-01 Eh
 * total energy  :   -41.7358464 Eh     change       -0.4941473E-01 Eh
 * total energy  :   -41.7618685 Eh     change       -0.2602210E-01 Eh
 * total energy  :   -42.1323208 Eh     change       -0.1501041E-02 Eh
 * total energy  :   -42.1333827 Eh     change       -0.1061862E-02 Eh
 * total energy  :   -42.1337598 Eh     change       -0.3771314E-03 Eh
 * total energy  :   -42.1341668 Eh     change       -0.4070494E-03 Eh
 * total energy  :   -42.1342796 Eh     change       -0.1127703E-03 Eh
 * total energy  :   -42.1343847 Eh     change       -0.1050862E-03 Eh
 * total energy  :   -42.1344513 Eh     change       -0.6658444E-04 Eh
 * total energy  :   -42.1344743 Eh     change       -0.2304525E-04 Eh
 * total energy  :   -42.1344989 Eh     change       -0.2455456E-04 Eh
   *** GEOMETRY OPTIMIZATION CONVERGED AFTER 44 ITERATIONS ***

 final structure:
================
25
 xtb: 6.6.1 (8d0f1dd)
C            3.47105931127600        0.89068892084680        0.00957995998066
N            2.47228955063700       -0.14329842517658       -0.00151877771859
C            2.64518641482637       -1.44745537355732       -0.00816599675669
N            1.45080356137113       -2.07838604566253       -0.00489509194183
C            0.48179693446342       -1.12017858759220        0.00515984902112
C            1.09523596857335        0.12849704540469        0.00729311808466
C            0.32104967880967        1.35636280356512        0.00105886959323
O           -1.84074075315265        3.53264158743658        0.02605639945163
N           -1.00262152834765        1.14470327279340        0.00520780281233
C           -2.11058228104986        2.16211728022923       -0.01478195021889
C           -1.65522869168284       -0.12023663817325        0.00518249803958
O           -2.85143616121221       -0.23594505458434       -0.00053593496096
N           -0.84949100942030       -1.26358726312167        0.00718990037243
C           -1.48167817265630       -2.57035401910518        0.00071565677187
H            3.96440144014979        0.93447901910190        0.98153871498972
H            4.22150994015589        0.70870354651983       -0.75844944599314
H            2.96913719278228        1.83970065380995       -0.17525897584749
H            3.59450706011361       -1.94758152860190       -0.01649040891256
H           -2.68074050466676        3.99871859454111        0.06020607194750
H           -2.67184784767695        1.91711102668041       -0.93227142099325
H           -2.73732879314170        1.87980179230536        0.84719022956817
H           -1.19997729313425       -3.13174562072116        0.89157491621866
H           -1.20429093943538       -3.12149235115609       -0.89795752994353
H           -2.55955038461927       -2.41444939987867        0.00386226729414
H            1.31896882113764       -3.08057669430348       -0.01031910295876

          :  Hamiltonian                  GFN2-xTB          :
         :: total energy             -42.134498885884 Eh    ::
         :: gradient norm              0.002239275868 Eh/a0 ::
         :: HOMO-LUMO gap              1.579590946440 eV    ::
         :: SCC energy               -42.628599853049 Eh    ::
         :: -> dispersion             -0.021952204632 Eh    ::
         :: repulsion energy           0.493750620914 Eh    ::

    * Orbital Energies and Occupations

         #    Occupation            Energy/Eh            Energy/eV
      -------------------------------------------------------------
         1        2.0000           -0.9089536             -24.7339
       ...           ...                  ...                  ...
        25        2.0000           -0.6697824             -18.2257
        26        2.0000           -0.6558452             -17.8465
        27        2.0000           -0.6516604             -17.7326
        28        2.0000           -0.6306543             -17.1610
        29        2.0000           -0.6271000             -17.0643
        30        2.0000           -0.6239962             -16.9798
        31        2.0000           -0.6185880             -16.8326
        32        2.0000           -0.6009273             -16.3521
        33        2.0000           -0.5980911             -16.2749
        34        2.0000           -0.5753168             -15.6552
        35        2.0000           -0.5568548             -15.1528
        36        1.9991           -0.5286235             -14.3846
        37        1.9503           -0.4969376             -13.5224 (HOMO)
        38        0.0500           -0.4388887             -11.9428 (LUMO)
        39        0.0006           -0.4040532             -10.9948
        40        0.0000           -0.3765715             -10.2470
        41                         -0.2885849              -7.8528
        42                         -0.2215372              -6.0283
        43                         -0.1940765              -5.2811
        44                         -0.1552832              -4.2255
        45                         -0.1487148              -4.0467
        46                         -0.0892457              -2.4285
        47                         -0.0577650              -1.5719
        48                         -0.0485473              -1.3210
       ...                                ...                  ...
        67                          0.5160539              14.0425
      -------------------------------------------------------------
                  HL-Gap            0.0580489 Eh            1.5796 eV

     #   Z          covCN         q      C6AA      α(0)
     1   6 C        3.691    -0.093    22.467     6.783
     2   7 N        2.840     0.079    19.873     6.621
     3   6 C        3.038     0.063    26.555     8.452
     4   7 N        2.782    -0.064    22.478     7.042
     5   6 C        3.063     0.115    25.402     8.265
     6   6 C        3.078     0.016    27.568     8.608
     7   6 C        1.902    -0.117    34.362     9.467
     8   8 O        1.656    -0.400    20.849     6.164
     9   7 N        2.741    -0.012    21.492     6.885
    10   6 C        3.642     0.140    18.643     6.208
    11   6 C        2.756     0.306    21.801     7.646
    12   8 O        0.859    -0.383    21.334     6.193
    13   7 N        2.739    -0.041    22.032     6.971
    14   6 C        3.698    -0.072    22.054     6.717
    15   1 H        0.924     0.110     1.696     2.037
    16   1 H        0.925     0.105     1.737     2.061
    17   1 H        0.925     0.132     1.518     1.927
    18   1 H        0.926     0.122     1.598     1.977
    19   1 H        0.805     0.329     0.639     1.256
    20   1 H        0.923     0.074     2.046     2.237
    21   1 H        0.923     0.075     2.030     2.228
    22   1 H        0.925     0.081     1.966     2.192
    23   1 H        0.925     0.081     1.967     2.193
    24   1 H        0.925     0.126     1.562     1.955
    25   1 H        0.860     0.226     0.984     1.554

Wiberg/Mayer (AO) data.
largest (>0.10) Wiberg bond orders for each atom

     #   Z sym  total        # sym  WBO       # sym  WBO       # sym  WBO
 ---------------------------------------------------------------------------
     1   6 C    3.920 --     2 N    0.988    17 H    0.967    16 H    0.964
                            15 H    0.955
     2   7 N    3.707 --     3 C    1.440     6 C    1.130     1 C    0.988
     3   6 C    3.900 --     2 N    1.440     4 N    1.276    18 H    0.952
     4   7 N    3.600 --     3 C    1.276     5 C    1.186    25 H    0.918
     5   6 C    3.948 --     6 C    1.339    13 N    1.223     4 N    1.186
     6   6 C    3.913 --     5 C    1.339     7 C    1.169     2 N    1.130
     7   6 C    2.822 --     9 N    1.413     6 C    1.169
     8   8 O    1.975 --    10 C    1.034    19 H    0.873
     9   7 N    3.651 --     7 C    1.413    11 C    1.054    10 C    0.945
                            12 O    0.115
    10   6 C    3.934 --     8 O    1.034    21 H    0.949    20 H    0.947
                             9 N    0.945
    11   6 C    3.954 --    12 O    1.707    13 N    1.079     9 N    1.054
    12   8 O    2.056 --    11 C    1.707    13 N    0.136     9 N    0.115
    13   7 N    3.595 --     5 C    1.223    11 C    1.079    14 C    0.971
                            12 O    0.136
    14   6 C    3.928 --    22 H    0.971    23 H    0.971    13 N    0.971
                            24 H    0.964
    15   1 H    0.986 --     1 C    0.955
    16   1 H    0.987 --     1 C    0.964
    17   1 H    0.982 --     1 C    0.967
    18   1 H    0.984 --     3 C    0.952
    19   1 H    0.891 --     8 O    0.873
    20   1 H    0.992 --    10 C    0.947
    21   1 H    0.992 --    10 C    0.949
    22   1 H    0.993 --    14 C    0.971
    23   1 H    0.993 --    14 C    0.971
    24   1 H    0.984 --    14 C    0.964
    25   1 H    0.949 --     4 N    0.918
 ---------------------------------------------------------------------------

molecular dipole:
                 x           y           z       tot (Debye)
 q only:        2.581      -1.697       0.007
   full:        2.485      -2.626       0.018       9.188

           -------------------------------------------------
          | TOTAL ENERGY              -42.134498885884 Eh   |
          | GRADIENT NORM               0.002239275868 Eh/α |
          | HOMO-LUMO GAP               1.579590946440 eV   |
           -------------------------------------------------

 * finished run on 2024/06/05 at 19:57:53.302
