   * xtb version 6.6.1 (8d0f1dd) compiled by 'conda@1efc2f54142f' on 2023-08-01
          program call               : xtb xtbopt.xyz --opt crude --input .xc2 --gfn2

   ID    Z sym.   atoms
    1    6 C      1, 3, 5-7, 10, 11, 14
    2    7 N      2, 4, 9, 13
    3    8 O      8, 12
    4    1 H      15-25
########################################################################
[WARNING] Please study the warnings concerning your input carefully
-1- readin_getIntValue: could not parse ''
########################################################################

          :  Hamiltonian                  GFN2-xTB          :
 * total energy  :   -42.1347980 Eh     change        0.1421085E-12 Eh
 * total energy  :   -42.1422272 Eh     change       -0.7429150E-02 Eh
 * total energy  :   -42.1472873 Eh     change       -0.5060091E-02 Eh
 * total energy  :   -42.1491943 Eh     change       -0.1907036E-02 Eh
 * total energy  :   -42.1502536 Eh     change       -0.1059349E-02 Eh
 * total energy  :   -42.1508222 Eh     change       -0.5685710E-03 Eh
 * total energy  :   -42.1510045 Eh     change       -0.1823055E-03 Eh
   *** GEOMETRY OPTIMIZATION CONVERGED AFTER 7 ITERATIONS ***

 final structure:
================
25
 xtb: 6.6.1 (8d0f1dd)
C            3.28910032402910        1.02862828636350        0.01270413372465
N            2.34864202381696       -0.05924936200804       -0.00035152687242
C            2.61333358585865       -1.35306134395130       -0.00533217465456
N            1.45989541062800       -2.06215992666219       -0.00477576846018
C            0.42915610749699       -1.17191938324870        0.00143679885174
C            0.98664125978322        0.10361665847692        0.00401807267120
C            0.21254031540382        1.29718881353830       -0.00745933833123
O           -1.30427307485340        3.31162184718562        0.02515149625668
N           -1.08950294501750        1.01877225341999       -0.00557779130191
C           -2.03120849662448        2.14067522837091       -0.01538249914235
C           -1.73262810341537       -0.23171969145710        0.00055917585510
O           -2.92779182430820       -0.33622711475954        0.00122774134734
N           -0.89876959221744       -1.36404682346758        0.00221501084022
C           -1.49914616555558       -2.68459949425434        0.00027794932677
H            3.78237202477662        1.09219407760074        0.98328234457423
H            4.04393137915016        0.88940511497021       -0.76020548041617
H            2.73543694600416        1.95147588808199       -0.16472024470806
H            3.59321227890655       -1.78822141980496       -0.01012367333246
H           -1.91375912855123        4.05620133816581        0.05742570136409
H           -2.64206472857843        2.05358358625967       -0.92829791231506
H           -2.69580323065430        2.02265972753743        0.85466734739929
H           -1.20338174488666       -3.23894243947290        0.89137728452539
H           -1.21067845693105       -3.23364732551815       -0.89652175167063
H           -2.58044985091262       -2.55301787768043        0.00495608735350
H            1.39562720075206       -3.07097207608583       -0.00937936498518

          :  Hamiltonian                  GFN2-xTB          :
         :: total energy             -42.151004517200 Eh    ::
         :: gradient norm              0.004281040348 Eh/a0 ::
         :: HOMO-LUMO gap              1.591891373264 eV    ::
         :: SCC energy               -42.658849646592 Eh    ::
         :: -> dispersion             -0.022209518834 Eh    ::
         :: repulsion energy           0.507762170452 Eh    ::

    * Orbital Energies and Occupations

         #    Occupation            Energy/Eh            Energy/eV
      -------------------------------------------------------------
         1        2.0000           -0.9070349             -24.6817
       ...           ...                  ...                  ...
        25        2.0000           -0.6652246             -18.1017
        26        2.0000           -0.6535356             -17.7836
        27        2.0000           -0.6510486             -17.7159
        28        2.0000           -0.6286494             -17.1064
        29        2.0000           -0.6252482             -17.0139
        30        2.0000           -0.6221460             -16.9295
        31        2.0000           -0.6170265             -16.7901
        32        2.0000           -0.6005463             -16.3417
        33        2.0000           -0.5972953             -16.2532
        34        2.0000           -0.5768041             -15.6956
        35        2.0000           -0.5541133             -15.0782
        36        1.9995           -0.5307869             -14.4434
        37        1.9514           -0.4949798             -13.4691 (HOMO)
        38        0.0484           -0.4364789             -11.8772 (LUMO)
        39        0.0007           -0.4027015             -10.9581
        40        0.0000           -0.3699252             -10.0662
        41                         -0.2795796              -7.6077
        42                         -0.1973563              -5.3703
        43                         -0.1901017              -5.1729
        44                         -0.1360167              -3.7012
        45                         -0.1128849              -3.0718
        46                         -0.0727518              -1.9797
        47                         -0.0456389              -1.2419
        48                         -0.0363110              -0.9881
       ...                                ...                  ...
        67                          0.5357658              14.5789
      -------------------------------------------------------------
                  HL-Gap            0.0585009 Eh            1.5919 eV

     #   Z          covCN         q      C6AA      α(0)
     1   6 C        3.692    -0.095    22.513     6.789
     2   7 N        2.838     0.083    19.792     6.607
     3   6 C        3.066     0.057    26.659     8.467
     4   7 N        2.791    -0.062    22.437     7.035
     5   6 C        3.057     0.114    25.440     8.272
     6   6 C        3.144     0.020    27.312     8.551
     7   6 C        1.919    -0.118    34.387     9.470
     8   8 O        1.658    -0.395    20.743     6.148
     9   7 N        2.767    -0.007    21.385     6.868
    10   6 C        3.641     0.142    18.614     6.204
    11   6 C        2.733     0.308    21.768     7.639
    12   8 O        0.859    -0.376    21.212     6.175
    13   7 N        2.739    -0.045    22.105     6.983
    14   6 C        3.696    -0.070    22.020     6.713
    15   1 H        0.924     0.110     1.694     2.036
    16   1 H        0.925     0.106     1.733     2.059
    17   1 H        0.924     0.134     1.502     1.917
    18   1 H        0.926     0.121     1.608     1.983
    19   1 H        0.805     0.326     0.648     1.265
    20   1 H        0.923     0.068     2.105     2.269
    21   1 H        0.923     0.069     2.100     2.266
    22   1 H        0.924     0.081     1.972     2.196
    23   1 H        0.924     0.081     1.973     2.196
    24   1 H        0.925     0.124     1.583     1.967
    25   1 H        0.860     0.224     0.990     1.558

Wiberg/Mayer (AO) data.
largest (>0.10) Wiberg bond orders for each atom

     #   Z sym  total        # sym  WBO       # sym  WBO       # sym  WBO
 ---------------------------------------------------------------------------
     1   6 C    3.919 --     2 N    0.986    17 H    0.965    16 H    0.964
                            15 H    0.956
     2   7 N    3.713 --     3 C    1.427     6 C    1.153     1 C    0.986
     3   6 C    3.896 --     2 N    1.427     4 N    1.272    18 H    0.953
     4   7 N    3.603 --     3 C    1.272     5 C    1.194    25 H    0.919
     5   6 C    3.949 --     6 C    1.319    13 N    1.226     4 N    1.194
     6   6 C    3.920 --     5 C    1.319     7 C    1.183     2 N    1.153
     7   6 C    2.831 --     9 N    1.394     6 C    1.183
     8   8 O    1.989 --    10 C    1.038    19 H    0.875
     9   7 N    3.660 --     7 C    1.394    11 C    1.067    10 C    0.958
                            12 O    0.114
    10   6 C    3.939 --     8 O    1.038     9 N    0.958    21 H    0.947
                            20 H    0.945
    11   6 C    3.955 --    12 O    1.713     9 N    1.067    13 N    1.064
    12   8 O    2.060 --    11 C    1.713    13 N    0.139     9 N    0.114
    13   7 N    3.591 --     5 C    1.226    11 C    1.064    14 C    0.973
                            12 O    0.139
    14   6 C    3.930 --    13 N    0.973    22 H    0.971    23 H    0.971
                            24 H    0.966
    15   1 H    0.986 --     1 C    0.956
    16   1 H    0.988 --     1 C    0.964
    17   1 H    0.982 --     1 C    0.965
    18   1 H    0.985 --     3 C    0.953
    19   1 H    0.893 --     8 O    0.875
    20   1 H    0.992 --    10 C    0.945
    21   1 H    0.993 --    10 C    0.947
    22   1 H    0.993 --    14 C    0.971
    23   1 H    0.993 --    14 C    0.971
    24   1 H    0.984 --    14 C    0.966
    25   1 H    0.949 --     4 N    0.919
 ---------------------------------------------------------------------------

molecular dipole:
                 x           y           z       tot (Debye)
 q only:        2.621      -1.337       0.008
   full:        2.504      -2.210       0.019       8.489

           -------------------------------------------------
          | TOTAL ENERGY              -42.151004517200 Eh   |
          | GRADIENT NORM               0.004281040348 Eh/α |
          | HOMO-LUMO GAP               1.591891373264 eV   |
           -------------------------------------------------

 * finished run on 2024/06/05 at 19:57:53.616
