   * xtb version 6.6.1 (8d0f1dd) compiled by 'conda@1efc2f54142f' on 2023-08-01
          program call               : xtb struc.xyz --opt loose --input .xc1 --gfn2

   ID    Z sym.   atoms
    1    7 N      1, 17
    2    6 C      2-6, 8, 9, 11-16, 18-23, 25, 26, 28-33
    3    8 O      7, 10, 24, 27
    4    1 H      34-72
constraining bond 16 62 to    3.7133300 Å, actual value:    2.8284197 Å

          :  Hamiltonian                  GFN2-xTB          :
 * total energy  :   -99.5439499 Eh     change       -0.4035485E-08 Eh
 * total energy  :   -99.7691488 Eh     change       -0.2251989E+00 Eh
 * total energy  :  -100.0590209 Eh     change       -0.2898721E+00 Eh
 * total energy  :  -100.4514011 Eh     change       -0.3923801E+00 Eh
 * total energy  :   -98.7630092 Eh     change        0.1688392E+01 Eh
 * total energy  :  -100.6145641 Eh     change       -0.1851555E+01 Eh
 * total energy  :  -100.6913312 Eh     change       -0.7676710E-01 Eh
 * total energy  :  -100.7215959 Eh     change       -0.3026474E-01 Eh
 * total energy  :  -100.7379360 Eh     change       -0.1634011E-01 Eh
 * total energy  :  -100.7488820 Eh     change       -0.1094596E-01 Eh
 * total energy  :  -100.8076654 Eh     change       -0.1030534E-03 Eh
 * total energy  :  -100.8077724 Eh     change       -0.1069431E-03 Eh
 * total energy  :  -100.8078655 Eh     change       -0.9316210E-04 Eh
 * total energy  :  -100.8079466 Eh     change       -0.8102918E-04 Eh
 * total energy  :  -100.8080297 Eh     change       -0.8311017E-04 Eh
 * total energy  :  -100.8081179 Eh     change       -0.8824104E-04 Eh
 * total energy  :  -100.8081955 Eh     change       -0.7758329E-04 Eh
 * total energy  :  -100.8082512 Eh     change       -0.5574075E-04 Eh
 * total energy  :  -100.8082913 Eh     change       -0.4008700E-04 Eh
   *** GEOMETRY OPTIMIZATION CONVERGED AFTER 40 ITERATIONS ***

 final structure:
================
72
 xtb: 6.6.1 (8d0f1dd)
N           -1.35399118859265        2.69584181436236        2.02832170493533
C           -1.45999868101036        1.89229468955834        1.07550852339271
C           -2.69272260960608        1.76561068878515        0.22003120514670
C           -3.23749970164419        0.35214359631501        0.31344616267509
C           -4.23925195993451       -0.06301901382110       -0.56659782433482
C           -4.80359870043847       -1.32496748203169       -0.47828746185905
O           -5.76672946600836       -1.80680213681198       -1.28983723673618
C           -6.30657002861604       -0.97747868899925       -2.29144349425234
C           -4.36458129139067       -2.21815813761842        0.53747262344505
O           -4.98170966626360       -3.41505556241477        0.56293988054799
C           -4.68283124615521       -4.31821969148056        1.60208578869410
C           -3.36980588212083       -1.79918228873684        1.40684465632254
C           -2.81374772899276       -0.53210265092074        1.29400421332405
C           -2.26213254730500        2.11328608696790       -1.23566839281507
C           -1.68400626361262        0.99906559077377       -2.11653984566185
C           -0.16420813550311        0.71835782134824       -2.03960300938836
N            0.24389622281913       -0.13574098515689       -0.90914084509583
C            1.56253041727775        0.11714958734890       -0.37310444724154
C            2.65481180529081       -0.38352444970247       -1.34066864085492
C            4.03154161721289       -0.10846186242482       -0.80517265369164
C            4.62558984828601        1.12968133456132       -0.99583285661464
C            5.90871058127088        1.37993989867433       -0.53597241746780
C            6.62701108587785        0.39449167023361        0.12715972905136
O            7.88475831588138        0.51642650143204        0.58784488410848
C            8.59121345554230        1.71348143191754        0.35348392536505
C            6.01718335832717       -0.87218194013585        0.34806032634424
O            6.77907423295191       -1.76876719903888        1.00366811831594
C            6.27932978794045       -3.06552107707578        1.22958327790664
C            4.73103331647437       -1.09760422239020       -0.11865440929283
C           -0.36763469965194       -1.27661752177056       -0.64423722532374
C           -3.83578563933726        2.73469085931655        0.65499426535724
C           -4.34189120969786        2.41803137548794        2.06063140563094
C           -3.44711651241939        4.20837680762829        0.56859674870393
H           -4.59420119250257        0.61998855732420       -1.32077480035757
H           -6.77882142152227       -0.08742568165491       -1.86476302326712
H           -7.06172413944792       -1.57990408880630       -2.79257909546499
H           -5.54546940617504       -0.67565926272584       -3.01849311219089
H           -4.88631093934661       -3.87976925497251        2.58349956704987
H           -5.33889127976140       -5.17202360545684        1.44517408037602
H           -3.64061595121606       -4.64993500031730        1.55870940447079
H           -3.02669890540099       -2.45082743397819        2.19377687405226
H           -2.06780695767558       -0.23086653986172        2.01254531143229
H           -3.15023416786373        2.48487141054416       -1.74821522365313
H           -1.55317129342095        2.94195014464664       -1.19411325449965
H           -2.24237981861859        0.07730752340225       -1.96651046955871
H           -1.85012042097373        1.30483056605222       -3.15278865939210
H           -0.64876854688313        1.22576069050698        0.75498804323222
H            0.32691721520753        1.69034289857211       -1.85938632059232
H            1.66659141268828       -0.39708845616604        0.58437886043598
H            1.68971555207401        1.19024629543683       -0.20895502097237
H            2.53875034657172        0.11965544343329       -2.30214727714843
H            2.51796381305561       -1.45547082783158       -1.49362796258987
H            4.09731675324898        1.90805056403837       -1.52536385306785
H            6.34827885084558        2.34821263459718       -0.71004448020320
H            8.11645713409275        2.56388685458458        0.85241207519209
H            8.68168946047432        1.92055058092334       -0.71701667056209
H            9.58184367564778        1.55530157593652        0.77562681715551
H            7.07315154957754       -3.59819564166020        1.74953530289561
H            5.38434292772623       -3.04675681960934        1.85951917934156
H            6.05561226133665       -3.57819495382884        0.28892997650366
H            4.26609512661146       -2.05978605333369        0.02865764415015
H            0.06561366357972        0.39869336362845       -2.72035586916962
H           -1.25689210515148       -1.56033217211438       -1.16944505676034
H            0.01032845746382       -1.91060547453057        0.13354928705263
H           -4.66479151094745        2.56213140909655       -0.04190041857172
H           -3.55220997767098        2.57907487847904        2.78773250564537
H           -4.68655627056294        1.38912349460585        2.13310330521656
H           -5.17322671412701        3.07433346735282        2.30390763077756
H           -2.61523548567129        4.41589907464857        1.23381357975551
H           -3.17846709354155        4.50114536115923       -0.44266100869488
H           -4.29219405325538        4.81753862391531        0.87837251940232
H           -0.47023583832630        2.72262053226457        2.52825777652600

          :  Hamiltonian                  GFN2-xTB          :
         :: total energy            -100.808291320103 Eh    ::
         :: gradient norm              0.002203481662 Eh/a0 ::
         :: HOMO-LUMO gap              1.511749608543 eV    ::
         :: SCC energy              -100.790806774169 Eh    ::
         :: -> dispersion             -0.076433654616 Eh    ::
         :: repulsion energy           1.510699808980 Eh    ::

    * Orbital Energies and Occupations

         #    Occupation            Energy/Eh            Energy/eV
      -------------------------------------------------------------
         1        2.0000           -0.8112719             -22.0758
       ...           ...                  ...                  ...
        78        1.9981           -0.5316465             -14.4668
        79        1.9978           -0.5289818             -14.3943
        80        1.9976           -0.5277260             -14.3602
        81        1.9967           -0.5229487             -14.2302
        82        1.9967           -0.5227440             -14.2246
        83        1.9944           -0.5145173             -14.0007
        84        1.9936           -0.5121676             -13.9368
        85        1.9924           -0.5094913             -13.8640
        86        1.9767           -0.4916649             -13.3789
        87        1.9760           -0.4912167             -13.3667
        88        1.9094           -0.4696098             -12.7787
        89        1.8449           -0.4605568             -12.5324
        90        1.8294           -0.4589199             -12.4878 (HOMO)
        91        0.4861           -0.4033641             -10.9761 (LUMO)
        92        0.0107           -0.3386555              -9.2153
        93        0.0028           -0.3175870              -8.6420
        94        0.0025           -0.3155218              -8.5858
        95        0.0023           -0.3144712              -8.5572
        96        0.0022           -0.3135136              -8.5311
        97        0.0000           -0.1922543              -5.2315
        98        0.0000           -0.1908790              -5.1941
        99                         -0.1531596              -4.1677
       100                         -0.0778285              -2.1178
       101                         -0.0680582              -1.8520
       ...                                ...                  ...
       171                          1.0744110              29.2362
      -------------------------------------------------------------
                  HL-Gap            0.0555558 Eh            1.5117 eV

     #   Z          covCN         q      C6AA      α(0)
     1   7 N        1.774    -0.271    27.858     7.816
     2   6 C        2.826     0.100    25.774     8.319
     3   6 C        3.906     0.006    20.428     6.424
     4   6 C        2.974     0.004    27.931     8.669
     5   6 C        2.920    -0.080    30.000     8.982
     6   6 C        2.862     0.130    25.157     8.221
     7   8 O        1.706    -0.228    17.776     5.692
     8   6 C        3.644     0.027    20.457     6.501
     9   6 C        2.864     0.130    25.150     8.220
    10   8 O        1.706    -0.226    17.742     5.687
    11   6 C        3.645     0.026    20.466     6.502
    12   6 C        2.914    -0.072    29.803     8.952
    13   6 C        2.921    -0.050    29.244     8.868
    14   6 C        3.807    -0.068    21.804     6.647
    15   6 C        3.797    -0.075    21.936     6.669
    16   6 C        3.747    -0.042    21.397     6.598
    17   7 N        2.727     0.018    20.944     6.797
    18   6 C        3.756    -0.014    20.883     6.516
    19   6 C        3.808    -0.070    21.841     6.653
    20   6 C        2.967     0.000    28.017     8.682
    21   6 C        2.922    -0.048    29.200     8.862
    22   6 C        2.914    -0.067    29.667     8.931
    23   6 C        2.864     0.134    25.061     8.206
    24   8 O        1.706    -0.219    17.643     5.671
    25   6 C        3.645     0.024    20.502     6.508
    26   6 C        2.863     0.134    25.068     8.207
    27   8 O        1.706    -0.222    17.688     5.678
    28   6 C        3.645     0.026    20.467     6.502
    29   6 C        2.919    -0.078    29.961     8.976
    30   6 C        2.790    -0.054    29.314     8.869
    31   6 C        3.854    -0.008    20.686     6.469
    32   6 C        3.755    -0.117    22.798     6.808
    33   6 C        3.755    -0.121    22.870     6.819
    34   1 H        0.926     0.054     2.268     2.355
    35   1 H        0.924     0.055     2.259     2.351
    36   1 H        0.925     0.082     1.957     2.188
    37   1 H        0.924     0.048     2.348     2.396
    38   1 H        0.924     0.056     2.249     2.345
    39   1 H        0.925     0.082     1.957     2.187
    40   1 H        0.924     0.050     2.317     2.380
    41   1 H        0.926     0.053     2.279     2.361
    42   1 H        0.926     0.040     2.451     2.448
    43   1 H        0.924     0.060     2.194     2.316
    44   1 H        0.924     0.050     2.326     2.385
    45   1 H        0.925     0.059     2.211     2.325
    46   1 H        0.924     0.060     2.200     2.320
    47   1 H        0.924     0.005     2.973     2.696
    48   1 H        0.923     0.067     2.119     2.276
    49   1 H        0.924     0.069     2.094     2.263
    50   1 H        0.924     0.067     2.119     2.276
    51   1 H        0.924     0.056     2.250     2.346
    52   1 H        0.924     0.054     2.269     2.355
    53   1 H        0.926     0.045     2.377     2.411
    54   1 H        0.926     0.060     2.202     2.321
    55   1 H        0.924     0.056     2.248     2.345
    56   1 H        0.924     0.057     2.238     2.339
    57   1 H        0.925     0.084     1.943     2.180
    58   1 H        0.925     0.083     1.949     2.183
    59   1 H        0.924     0.050     2.316     2.380
    60   1 H        0.924     0.054     2.276     2.359
    61   1 H        0.926     0.049     2.327     2.385
    62   1 H        0.930     0.114     1.664     2.017
    63   1 H        0.926     0.078     2.004     2.214
    64   1 H        0.926     0.076     2.021     2.223
    65   1 H        0.924     0.037     2.487     2.466
    66   1 H        0.925     0.066     2.134     2.284
    67   1 H        0.925     0.034     2.527     2.486
    68   1 H        0.925     0.052     2.298     2.371
    69   1 H        0.925     0.067     2.117     2.275
    70   1 H        0.925     0.036     2.499     2.472
    71   1 H        0.925     0.054     2.272     2.357
    72   1 H        0.860     0.154     1.374     1.836

Wiberg/Mayer (AO) data.
largest (>0.10) Wiberg bond orders for each atom

     #   Z sym  total        # sym  WBO       # sym  WBO       # sym  WBO
 ---------------------------------------------------------------------------
     1   7 N    3.015 --     2 C    1.953    72 H    0.943
     2   6 C    3.942 --     1 N    1.953     3 C    0.993    47 H    0.928
     3   6 C    3.973 --     2 C    0.993     4 C    0.977    14 C    0.951
                            31 C    0.944
     4   6 C    3.942 --    13 C    1.408     5 C    1.368     3 C    0.977
     5   6 C    3.959 --     6 C    1.398     4 C    1.368    34 H    0.958
     6   6 C    3.898 --     5 C    1.398     9 C    1.218     7 O    1.101
     7   8 O    2.252 --     6 C    1.101     8 C    0.978
     8   6 C    3.931 --     7 O    0.978    36 H    0.976    37 H    0.973
                            35 H    0.973
     9   6 C    3.895 --    12 C    1.389     6 C    1.218    10 O    1.105
    10   8 O    2.251 --     9 C    1.105    11 C    0.977
    11   6 C    3.930 --    39 H    0.977    10 O    0.977    38 H    0.973
                            40 H    0.973
    12   6 C    3.958 --    13 C    1.407     9 C    1.389    41 H    0.963
    13   6 C    3.948 --     4 C    1.408    12 C    1.407    42 H    0.962
    14   6 C    3.986 --    15 C    1.010    44 H    0.971    43 H    0.967
                             3 C    0.951
    15   6 C    3.981 --    14 C    1.010    16 C    0.991    46 H    0.970
                            45 H    0.959
    16   6 C    3.947 --    15 C    0.991    48 H    0.965    62 H    0.962
                            17 N    0.959
    17   7 N    3.448 --    30 C    1.450    18 C    0.989    16 C    0.959
    18   6 C    3.955 --    17 N    0.989    49 H    0.968    50 H    0.964
                            19 C    0.963
    19   6 C    3.972 --    20 C    1.009    52 H    0.973    51 H    0.970
                            18 C    0.963
    20   6 C    3.942 --    21 C    1.404    29 C    1.382    19 C    1.009
    21   6 C    3.945 --    22 C    1.420    20 C    1.404    53 H    0.968
    22   6 C    3.957 --    21 C    1.420    23 C    1.380    54 H    0.963
    23   6 C    3.891 --    22 C    1.380    26 C    1.217    24 O    1.113
    24   8 O    2.255 --    23 C    1.113    25 C    0.975
    25   6 C    3.927 --    57 H    0.976    24 O    0.975    56 H    0.972
                            55 H    0.972
    26   6 C    3.895 --    29 C    1.392    23 C    1.217    27 O    1.107
    27   8 O    2.255 --    26 C    1.107    28 C    0.978
    28   6 C    3.930 --    27 O    0.978    58 H    0.977    59 H    0.973
                            60 H    0.973
    29   6 C    3.957 --    26 C    1.392    20 C    1.382    61 H    0.962
    30   6 C    3.492 --    17 N    1.450    64 H    0.970    63 H    0.967
    31   6 C    3.973 --    32 C    1.008    33 C    1.008    65 H    0.958
                             3 C    0.944
    32   6 C    3.978 --    31 C    1.008    67 H    0.981    68 H    0.981
                            66 H    0.974
    33   6 C    3.977 --    31 C    1.008    70 H    0.982    71 H    0.979
                            69 H    0.972
    34   1 H    0.996 --     5 C    0.958
    35   1 H    0.992 --     8 C    0.973
    36   1 H    0.993 --     8 C    0.976
    37   1 H    0.993 --     8 C    0.973
    38   1 H    0.992 --    11 C    0.973
    39   1 H    0.992 --    11 C    0.977
    40   1 H    0.992 --    11 C    0.973
    41   1 H    0.995 --    12 C    0.963
    42   1 H    0.998 --    13 C    0.962
    43   1 H    0.995 --    14 C    0.967
    44   1 H    0.996 --    14 C    0.971
    45   1 H    0.996 --    15 C    0.959
    46   1 H    0.995 --    15 C    0.970
    47   1 H    0.982 --     2 C    0.928
    48   1 H    0.994 --    16 C    0.965
    49   1 H    0.993 --    18 C    0.968
    50   1 H    0.992 --    18 C    0.964
    51   1 H    0.995 --    19 C    0.970
    52   1 H    0.996 --    19 C    0.973
    53   1 H    0.997 --    21 C    0.968
    54   1 H    0.995 --    22 C    0.963
    55   1 H    0.991 --    25 C    0.972
    56   1 H    0.991 --    25 C    0.972
    57   1 H    0.992 --    25 C    0.976
    58   1 H    0.992 --    28 C    0.977
    59   1 H    0.992 --    28 C    0.973
    60   1 H    0.992 --    28 C    0.973
    61   1 H    0.996 --    29 C    0.962
    62   1 H    0.981 --    16 C    0.962
    63   1 H    0.994 --    30 C    0.967
    64   1 H    0.994 --    30 C    0.970
    65   1 H    0.990 --    31 C    0.958
    66   1 H    0.991 --    32 C    0.974
    67   1 H    0.996 --    32 C    0.981
    68   1 H    0.994 --    32 C    0.981
    69   1 H    0.990 --    33 C    0.972
    70   1 H    0.996 --    33 C    0.982
    71   1 H    0.993 --    33 C    0.979
    72   1 H    0.970 --     1 N    0.943
 ---------------------------------------------------------------------------

molecular dipole:
                 x           y           z       tot (Debye)
 q only:        0.698      -0.115      -0.962
   full:        0.943      -0.352      -1.093       3.776

           -------------------------------------------------
          | TOTAL ENERGY             -100.808291320103 Eh   |
          | GRADIENT NORM               0.002203481662 Eh/α |
          | HOMO-LUMO GAP               1.511749608543 eV   |
           -------------------------------------------------

 * finished run on 2024/04/06 at 11:16:40.893
