   * xtb version 6.6.1 (8d0f1dd) compiled by 'conda@1efc2f54142f' on 2023-08-01
          program call               : xtb xtbopt.xyz --opt crude --input .xc2 --gfn2

   ID    Z sym.   atoms
    1    7 N      1, 17
    2    6 C      2-6, 8, 9, 11-16, 18-23, 25, 26, 28-33
    3    8 O      7, 10, 24, 27
    4    1 H      34-72
########################################################################
[WARNING] Please study the warnings concerning your input carefully
-1- readin_getIntValue: could not parse ''
########################################################################

          :  Hamiltonian                  GFN2-xTB          :
 * total energy  :   -99.2786424 Eh     change       -0.1705303E-12 Eh
 * total energy  :   -99.3884984 Eh     change       -0.1098559E+00 Eh
 * total energy  :   -99.3900033 Eh     change       -0.1504909E-02 Eh
 * total energy  :   -99.3908340 Eh     change       -0.8307487E-03 Eh
 * total energy  :   -99.3909261 Eh     change       -0.9208355E-04 Eh
   *** GEOMETRY OPTIMIZATION CONVERGED AFTER 5 ITERATIONS ***

 final structure:
================
72
 xtb: 6.6.1 (8d0f1dd)
N           -1.35161507334650        2.70001155143139        2.02876155012511
C           -1.46291498374381        1.89734399787573        1.07607938144046
C           -2.69830101574078        1.77036780238276        0.22504659584665
C           -3.24195004815213        0.35651263932692        0.31835839647122
C           -4.24190305763971       -0.06013617098126       -0.56303789814460
C           -4.80282502307897       -1.32383756045702       -0.47706965628902
O           -5.76453285534752       -1.80699178021830       -1.28952615466474
C           -6.30920898695387       -0.97591168762365       -2.28737288897285
C           -4.36150350928614       -2.21750381060611        0.53717826765603
O           -4.97380400544559       -3.41723575611917        0.55809577245770
C           -4.67527354491048       -4.32217650883905        1.59563048593663
C           -3.36942185319006       -1.79657843841989        1.40886865517004
C           -2.81707940854211       -0.52773060455788        1.29859191192115
C           -2.26890605366175        2.11738671805691       -1.23145007869038
C           -1.68600170436937        1.00247562729415       -2.11238809765196
C           -0.18046138334878        0.73306465007993       -1.99819359347926
N            0.24224266473033       -0.12864422995714       -0.90685960925185
C            1.56478648108195        0.11678383349442       -0.37488300043348
C            2.65422885647338       -0.38700766699714       -1.34440043871295
C            4.03118504466265       -0.11293250527195       -0.80966472806598
C            4.62471145493870        1.12543919040996       -1.00083756245190
C            5.90612794000518        1.37812579417262       -0.53801822427779
C            6.62282912715254        0.39451928666511        0.12950764740968
O            7.87738498824575        0.51846010403321        0.59725050311767
C            8.58417219550794        1.71572052214002        0.36605918853290
C            6.01439516237357       -0.87315476450818        0.34895177108927
O            6.77665791743761       -1.76730796686544        1.00696956023710
C            6.27995460288002       -3.06505205833239        1.23329705331937
C            4.72994498665443       -1.10097614134950       -0.12090839475217
C           -0.37160104898016       -1.26860262110063       -0.63535963646515
C           -3.84005871835974        2.73869985618015        0.66367309256836
C           -4.33923661634580        2.42315657816828        2.07170415403093
C           -3.45289630685562        4.21264655542914        0.57597955722531
H           -4.59692916057794        0.62248475299304       -1.31751629908602
H           -6.77792346868171       -0.08598523714155       -1.85687670497267
H           -7.06786459911998       -1.57687510836557       -2.78483318506515
H           -5.55169450209052       -0.67447404582476       -3.01825372919665
H           -4.88194888433152       -3.88666192890991        2.57769040661405
H           -5.32941947626191       -5.17684639645407        1.43480763474851
H           -3.63238515090675       -4.65180476851601        1.55381848164366
H           -3.02525935912460       -2.44861232141258        2.19500602745396
H           -2.07260589703639       -0.22498457792028        2.01812010609994
H           -3.15756061765546        2.48672339777722       -1.74500660288211
H           -1.56167291961259        2.94796626761733       -1.19080625253876
H           -2.24711338044811        0.08169949444094       -1.96507761201122
H           -1.84662681920057        1.31196216894498       -3.14700823708428
H           -0.65323426649043        1.23096176113347        0.75153204298502
H            0.34324250511041        1.68588825137319       -1.88465711266241
H            1.67100291873551       -0.39925140522470        0.58184782894049
H            1.70001525989655        1.18863682949967       -0.20858613265059
H            2.53654371474430        0.11758533925855       -2.30449384864680
H            2.51545907932895       -1.45850420042804       -1.49752963679979
H            4.09639868541394        1.90211837910499       -1.53281405813568
H            6.34543987932230        2.34642842868200       -0.71283914059349
H            8.10644931239613        2.56586293594171        0.86219243888803
H            8.67997610768971        1.92277451517551       -0.70399063241208
H            9.57261819212525        1.55806157780010        0.79317231730934
H            7.07526512403686       -3.59552749962414        1.75317794574485
H            5.38512295266873       -3.04809743150944        1.86351839975362
H            6.05709098651812       -3.57861107977699        0.29292529736561
H            4.26610532326455       -2.06370584721808        0.02601290911607
H            0.14574086453836        0.27656919494888       -2.93897804828706
H           -1.26735046530631       -1.55004131653083       -1.14979066467235
H            0.02086886815579       -1.90883665139919        0.13049648715104
H           -4.67192648312261        2.56529503474948       -0.02947899936063
H           -3.54858155953389        2.59321340710247        2.79569171683542
H           -4.67556567505667        1.39192327699961        2.14936178122163
H           -5.17491905409181        3.07384505653610        2.31541825047179
H           -2.62177432931264        4.42142710991342        1.24200948447124
H           -3.18329654447078        4.50476491156920       -0.43521176968385
H           -4.29880466272609        4.82160218757757        0.88435582239234
H           -0.46549312664046        2.72623062466242        2.52382454786720

          :  Hamiltonian                  GFN2-xTB          :
         :: total energy             -99.390926110999 Eh    ::
         :: gradient norm              0.002916838124 Eh/a0 ::
         :: HOMO-LUMO gap              1.503382050222 eV    ::
         :: SCC energy              -100.767548476684 Eh    ::
         :: -> dispersion             -0.076415258950 Eh    ::
         :: repulsion energy           1.375161468320 Eh    ::

    * Orbital Energies and Occupations

         #    Occupation            Energy/Eh            Energy/eV
      -------------------------------------------------------------
         1        2.0000           -0.8113581             -22.0782
       ...           ...                  ...                  ...
        78        1.9981           -0.5317809             -14.4705
        79        1.9977           -0.5290294             -14.3956
        80        1.9976           -0.5278738             -14.3642
        81        1.9967           -0.5230689             -14.2334
        82        1.9967           -0.5228020             -14.2262
        83        1.9944           -0.5145133             -14.0006
        84        1.9935           -0.5123523             -13.9418
        85        1.9923           -0.5095253             -13.8649
        86        1.9766           -0.4918438             -13.3838
        87        1.9758           -0.4912975             -13.3689
        88        1.9089           -0.4697694             -12.7831
        89        1.8437           -0.4606743             -12.5356
        90        1.8281           -0.4590348             -12.4910 (HOMO)
        91        0.4902           -0.4037865             -10.9876 (LUMO)
        92        0.0106           -0.3386838              -9.2161
        93        0.0028           -0.3177189              -8.6456
        94        0.0025           -0.3156404              -8.5890
        95        0.0023           -0.3145923              -8.5605
        96        0.0022           -0.3136407              -8.5346
        97        0.0000           -0.1923643              -5.2345
        98        0.0000           -0.1909616              -5.1963
        99                         -0.1420587              -3.8656
       100                         -0.0736307              -2.0036
       101                         -0.0656268              -1.7858
       ...                                ...                  ...
       171                          0.5721976              15.5703
      -------------------------------------------------------------
                  HL-Gap            0.0552483 Eh            1.5034 eV

     #   Z          covCN         q      C6AA      α(0)
     1   7 N        1.774    -0.272    27.866     7.817
     2   6 C        2.826     0.101    25.764     8.317
     3   6 C        3.906     0.006    20.422     6.423
     4   6 C        2.974     0.004    27.926     8.668
     5   6 C        2.920    -0.080    29.995     8.981
     6   6 C        2.862     0.130    25.155     8.221
     7   8 O        1.706    -0.228    17.774     5.692
     8   6 C        3.644     0.027    20.459     6.502
     9   6 C        2.864     0.130    25.151     8.220
    10   8 O        1.706    -0.226    17.742     5.687
    11   6 C        3.645     0.026    20.466     6.502
    12   6 C        2.913    -0.072    29.800     8.952
    13   6 C        2.921    -0.050    29.240     8.868
    14   6 C        3.807    -0.068    21.795     6.646
    15   6 C        3.798    -0.073    21.894     6.662
    16   6 C        3.748    -0.020    20.989     6.534
    17   7 N        2.728     0.029    20.742     6.764
    18   6 C        3.757    -0.015    20.903     6.518
    19   6 C        3.808    -0.070    21.842     6.653
    20   6 C        2.968     0.001    28.012     8.681
    21   6 C        2.922    -0.048    29.199     8.861
    22   6 C        2.913    -0.067    29.665     8.931
    23   6 C        2.865     0.134    25.060     8.206
    24   8 O        1.706    -0.219    17.638     5.670
    25   6 C        3.645     0.024    20.503     6.508
    26   6 C        2.863     0.134    25.067     8.207
    27   8 O        1.706    -0.222    17.684     5.678
    28   6 C        3.645     0.026    20.468     6.502
    29   6 C        2.919    -0.078    29.961     8.976
    30   6 C        2.792    -0.055    29.357     8.875
    31   6 C        3.854    -0.008    20.684     6.468
    32   6 C        3.756    -0.117    22.796     6.808
    33   6 C        3.755    -0.121    22.865     6.818
    34   1 H        0.926     0.054     2.267     2.354
    35   1 H        0.924     0.055     2.259     2.350
    36   1 H        0.925     0.082     1.956     2.187
    37   1 H        0.924     0.048     2.345     2.395
    38   1 H        0.924     0.056     2.249     2.345
    39   1 H        0.925     0.082     1.956     2.187
    40   1 H        0.924     0.050     2.316     2.380
    41   1 H        0.926     0.053     2.278     2.360
    42   1 H        0.926     0.040     2.452     2.449
    43   1 H        0.924     0.060     2.198     2.319
    44   1 H        0.924     0.049     2.330     2.387
    45   1 H        0.925     0.059     2.207     2.323
    46   1 H        0.924     0.062     2.180     2.309
    47   1 H        0.924     0.005     2.975     2.697
    48   1 H        0.924     0.071     2.074     2.252
    49   1 H        0.924     0.070     2.089     2.260
    50   1 H        0.924     0.067     2.117     2.275
    51   1 H        0.924     0.056     2.247     2.344
    52   1 H        0.924     0.054     2.266     2.354
    53   1 H        0.926     0.045     2.377     2.411
    54   1 H        0.926     0.060     2.201     2.320
    55   1 H        0.924     0.056     2.247     2.344
    56   1 H        0.924     0.057     2.237     2.339
    57   1 H        0.925     0.084     1.942     2.179
    58   1 H        0.925     0.083     1.948     2.183
    59   1 H        0.924     0.050     2.315     2.379
    60   1 H        0.924     0.054     2.275     2.359
    61   1 H        0.926     0.050     2.325     2.384
    62   1 H        0.924     0.069     2.096     2.264
    63   1 H        0.926     0.078     1.999     2.211
    64   1 H        0.926     0.077     2.014     2.219
    65   1 H        0.924     0.037     2.488     2.466
    66   1 H        0.925     0.066     2.133     2.284
    67   1 H        0.925     0.034     2.527     2.486
    68   1 H        0.925     0.052     2.299     2.371
    69   1 H        0.925     0.067     2.119     2.276
    70   1 H        0.925     0.036     2.499     2.472
    71   1 H        0.925     0.054     2.272     2.357
    72   1 H        0.860     0.154     1.374     1.836

Wiberg/Mayer (AO) data.
largest (>0.10) Wiberg bond orders for each atom

     #   Z sym  total        # sym  WBO       # sym  WBO       # sym  WBO
 ---------------------------------------------------------------------------
     1   7 N    3.015 --     2 C    1.953    72 H    0.943
     2   6 C    3.941 --     1 N    1.953     3 C    0.993    47 H    0.928
     3   6 C    3.973 --     2 C    0.993     4 C    0.977    14 C    0.950
                            31 C    0.944
     4   6 C    3.942 --    13 C    1.407     5 C    1.368     3 C    0.977
     5   6 C    3.959 --     6 C    1.398     4 C    1.368    34 H    0.958
     6   6 C    3.898 --     5 C    1.398     9 C    1.218     7 O    1.102
     7   8 O    2.252 --     6 C    1.102     8 C    0.978
     8   6 C    3.931 --     7 O    0.978    36 H    0.976    37 H    0.973
                            35 H    0.973
     9   6 C    3.895 --    12 C    1.389     6 C    1.218    10 O    1.105
    10   8 O    2.250 --     9 C    1.105    11 C    0.977
    11   6 C    3.929 --    10 O    0.977    39 H    0.977    38 H    0.973
                            40 H    0.973
    12   6 C    3.958 --    13 C    1.407     9 C    1.389    41 H    0.963
    13   6 C    3.948 --    12 C    1.407     4 C    1.407    42 H    0.962
    14   6 C    3.986 --    15 C    1.007    44 H    0.972    43 H    0.967
                             3 C    0.950
    15   6 C    3.983 --    14 C    1.007    16 C    0.998    46 H    0.970
                            45 H    0.959
    16   6 C    3.958 --    15 C    0.998    17 N    0.977    48 H    0.967
                            62 H    0.953
    17   7 N    3.457 --    30 C    1.443    18 C    0.987    16 C    0.977
    18   6 C    3.954 --    17 N    0.987    49 H    0.968    50 H    0.965
                            19 C    0.963
    19   6 C    3.972 --    20 C    1.009    52 H    0.973    51 H    0.969
                            18 C    0.963
    20   6 C    3.941 --    21 C    1.404    29 C    1.382    19 C    1.009
    21   6 C    3.945 --    22 C    1.420    20 C    1.404    53 H    0.968
    22   6 C    3.957 --    21 C    1.420    23 C    1.380    54 H    0.963
    23   6 C    3.891 --    22 C    1.380    26 C    1.217    24 O    1.114
    24   8 O    2.255 --    23 C    1.114    25 C    0.975
    25   6 C    3.927 --    57 H    0.976    24 O    0.975    56 H    0.972
                            55 H    0.972
    26   6 C    3.895 --    29 C    1.392    23 C    1.217    27 O    1.107
    27   8 O    2.255 --    26 C    1.107    28 C    0.978
    28   6 C    3.930 --    27 O    0.978    58 H    0.977    59 H    0.973
                            60 H    0.973
    29   6 C    3.957 --    26 C    1.392    20 C    1.382    61 H    0.962
    30   6 C    3.489 --    17 N    1.443    64 H    0.971    63 H    0.967
    31   6 C    3.972 --    32 C    1.008    33 C    1.008    65 H    0.958
                             3 C    0.944
    32   6 C    3.978 --    31 C    1.008    67 H    0.981    68 H    0.981
                            66 H    0.974
    33   6 C    3.977 --    31 C    1.008    70 H    0.982    71 H    0.979
                            69 H    0.972
    34   1 H    0.996 --     5 C    0.958
    35   1 H    0.992 --     8 C    0.973
    36   1 H    0.993 --     8 C    0.976
    37   1 H    0.993 --     8 C    0.973
    38   1 H    0.992 --    11 C    0.973
    39   1 H    0.992 --    11 C    0.977
    40   1 H    0.992 --    11 C    0.973
    41   1 H    0.995 --    12 C    0.963
    42   1 H    0.998 --    13 C    0.962
    43   1 H    0.995 --    14 C    0.967
    44   1 H    0.996 --    14 C    0.972
    45   1 H    0.996 --    15 C    0.959
    46   1 H    0.995 --    15 C    0.970
    47   1 H    0.982 --     2 C    0.928
    48   1 H    0.994 --    16 C    0.967
    49   1 H    0.993 --    18 C    0.968
    50   1 H    0.992 --    18 C    0.965
    51   1 H    0.995 --    19 C    0.969
    52   1 H    0.996 --    19 C    0.973
    53   1 H    0.997 --    21 C    0.968
    54   1 H    0.995 --    22 C    0.963
    55   1 H    0.991 --    25 C    0.972
    56   1 H    0.991 --    25 C    0.972
    57   1 H    0.992 --    25 C    0.976
    58   1 H    0.992 --    28 C    0.977
    59   1 H    0.992 --    28 C    0.973
    60   1 H    0.992 --    28 C    0.973
    61   1 H    0.996 --    29 C    0.962
    62   1 H    0.980 --    16 C    0.953
    63   1 H    0.993 --    30 C    0.967
    64   1 H    0.994 --    30 C    0.971
    65   1 H    0.990 --    31 C    0.958
    66   1 H    0.990 --    32 C    0.974
    67   1 H    0.996 --    32 C    0.981
    68   1 H    0.994 --    32 C    0.981
    69   1 H    0.990 --    33 C    0.972
    70   1 H    0.996 --    33 C    0.982
    71   1 H    0.993 --    33 C    0.979
    72   1 H    0.970 --     1 N    0.943
 ---------------------------------------------------------------------------

molecular dipole:
                 x           y           z       tot (Debye)
 q only:        0.697      -0.118      -0.899
   full:        0.949      -0.349      -1.052       3.708

           -------------------------------------------------
          | TOTAL ENERGY              -99.390926110999 Eh   |
          | GRADIENT NORM               0.002916838124 Eh/α |
          | HOMO-LUMO GAP               1.503382050222 eV   |
           -------------------------------------------------

 * finished run on 2024/04/06 at 11:16:42.007
