   * xtb version 6.6.1 (8d0f1dd) compiled by 'conda@1efc2f54142f' on 2023-08-01
          program call               : xtb struc.xyz --opt loose --input .xc1 --gfn2

   ID    Z sym.   atoms
    1    6 C      1, 3, 5-7, 10, 11, 14
    2    7 N      2, 4, 9, 13
    3    8 O      8, 12
    4    1 H      15-25
constraining bond 13 24 to    4.0600000 Å, actual value:    2.0566599 Å

          :  Hamiltonian                  GFN2-xTB          :
 * total energy  :   -35.0940465 Eh     change       -0.2401990E-09 Eh
 * total energy  :   -38.1242724 Eh     change       -0.3030226E+01 Eh
 * total energy  :   -40.2885538 Eh     change       -0.2164281E+01 Eh
 * total energy  :   -41.4243521 Eh     change       -0.1135798E+01 Eh
 * total energy  :   -41.7842300 Eh     change       -0.3598780E+00 Eh
 * total energy  :   -41.8384184 Eh     change       -0.5418834E-01 Eh
 * total energy  :   -41.8713048 Eh     change       -0.3288641E-01 Eh
 * total energy  :   -41.9296463 Eh     change       -0.5834157E-01 Eh
 * total energy  :   -41.9745706 Eh     change       -0.4492427E-01 Eh
 * total energy  :   -41.9994860 Eh     change       -0.2491540E-01 Eh
 * total energy  :   -42.1135596 Eh     change       -0.6134872E-03 Eh
 * total energy  :   -42.1142791 Eh     change       -0.7195693E-03 Eh
 * total energy  :   -42.1147641 Eh     change       -0.4849606E-03 Eh
 * total energy  :   -42.1150032 Eh     change       -0.2390783E-03 Eh
 * total energy  :   -42.1151267 Eh     change       -0.1235164E-03 Eh
 * total energy  :   -42.1151162 Eh     change        0.1052314E-04 Eh
 * total energy  :   -42.1152138 Eh     change       -0.9763786E-04 Eh
 * total energy  :   -42.1152092 Eh     change        0.4599755E-05 Eh
 * total energy  :   -42.1152508 Eh     change       -0.4160635E-04 Eh
   *** GEOMETRY OPTIMIZATION CONVERGED AFTER 32 ITERATIONS ***

 final structure:
================
25
 xtb: 6.6.1 (8d0f1dd)
C            3.31114879609303        1.25388025214659        0.01840457318328
N            2.38768090807605        0.15236691176592        0.00238148211505
C            2.69304037268250       -1.14752023913518       -0.00260630671522
N            1.55560928001065       -1.88568163205351       -0.00191637201650
C            0.49846749995546       -1.02593206456032        0.00393556586420
C            1.01597347332178        0.26320225369762        0.00745103167121
C            0.15733289712143        1.42336028810847       -0.00292244172395
O            0.52257133953741        2.58035166764675       -0.01258010832745
N           -1.19361381315503        1.05902721851718       -0.00406289803263
C           -2.17497474059783        2.13209529598042       -0.00269947646959
C           -1.73196089587025       -0.21713395250772       -0.00822306105036
O           -2.91530915361843       -0.41941829704696       -0.01290354092225
N           -0.81949615048889       -1.30336512240481       -0.00304606075773
C           -1.29875765147918       -2.62967908263479       -0.00699682941667
H            3.82781807665074        1.30307832188060        0.97867993349775
H            4.05245180634424        1.13877068749846       -0.77220629498729
H            2.75537923309158        2.17961360555998       -0.13013926809806
H            3.68470902534688       -1.55305437078536       -0.00855291798197
H           -1.64112093874358        3.08060141105788        0.00718636246710
H           -2.80488910774555        2.06215806159845       -0.89039400292752
H           -2.81490444068157        2.04861459264495        0.87665018647728
H           -1.62693685363640       -3.04261224071318        0.93002305422637
H           -1.70459544708653       -3.00615459179129       -0.93077104583852
H           -4.07204002990888       -3.73376449544246        0.00577773692637
H            1.49684802888050       -2.89456593742766       -0.00929768326286

          :  Hamiltonian                  GFN2-xTB          :
         :: total energy             -42.115250806671 Eh    ::
         :: gradient norm              0.002739207950 Eh/a0 ::
         :: HOMO-LUMO gap              0.437415088933 eV    ::
         :: SCC energy               -42.626907686772 Eh    ::
         :: -> dispersion             -0.022740917020 Eh    ::
         :: repulsion energy           0.511571717576 Eh    ::

    * Orbital Energies and Occupations

         #    Occupation            Energy/Eh            Energy/eV
      -------------------------------------------------------------
         1        2.0000           -0.9118198             -24.8119
       ...           ...                  ...                  ...
        25        1.9990           -0.6699562             -18.2304
        26        1.9988           -0.6661606             -18.1272
        27        1.9984           -0.6593335             -17.9414
        28        1.9956           -0.6349309             -17.2773
        29        1.9954           -0.6339580             -17.2509
        30        1.9912           -0.6183218             -16.8254
        31        1.9905           -0.6164849             -16.7754
        32        1.9852           -0.6059378             -16.4884
        33        1.9639           -0.5845055             -15.9052
        34        1.9297           -0.5682609             -15.4632
        35        1.9246           -0.5665353             -15.4162
        36        1.8880           -0.5566787             -15.1480
        37        1.2064           -0.4995319             -13.5930 (HOMO)
        38        0.8717           -0.4834571             -13.1555 (LUMO)
        39        0.1891           -0.4359290             -11.8622
        40        0.0573           -0.4058860             -11.0447
        41        0.0175           -0.3772391             -10.2652
        42        0.0005           -0.2920053              -7.9459
        43        0.0000           -0.2030061              -5.5241
        44        0.0000           -0.1959048              -5.3308
        45        0.0000           -0.1336123              -3.6358
        46        0.0000           -0.1320747              -3.5939
        47                         -0.0712259              -1.9382
        48                         -0.0412098              -1.1214
       ...                                ...                  ...
        67                          0.5422555              14.7555
      -------------------------------------------------------------
                  HL-Gap            0.0160747 Eh            0.4374 eV

     #   Z          covCN         q      C6AA      α(0)
     1   6 C        3.691    -0.093    22.469     6.783
     2   7 N        2.827     0.078    19.886     6.623
     3   6 C        3.048     0.047    26.902     8.507
     4   7 N        2.787    -0.057    22.339     7.020
     5   6 C        3.047     0.115    25.424     8.270
     6   6 C        3.109    -0.019    28.341     8.722
     7   6 C        2.764     0.268    22.481     7.765
     8   8 O        0.858    -0.355    20.807     6.116
     9   7 N        2.745    -0.077    22.743     7.083
    10   6 C        3.710    -0.061    21.813     6.675
    11   6 C        2.728     0.316    21.638     7.615
    12   8 O        0.859    -0.340    20.509     6.072
    13   7 N        2.738    -0.036    21.941     6.957
    14   6 C        2.784    -0.080    29.983     8.969
    15   1 H        0.924     0.111     1.690     2.033
    16   1 H        0.925     0.108     1.716     2.048
    17   1 H        0.925     0.137     1.485     1.906
    18   1 H        0.926     0.126     1.566     1.957
    19   1 H        0.925     0.122     1.599     1.977
    20   1 H        0.924     0.108     1.713     2.047
    21   1 H        0.924     0.108     1.714     2.047
    22   1 H        0.926     0.097     1.813     2.106
    23   1 H        0.926     0.098     1.806     2.101
    24   1 H        0.000     0.049     5.813     4.409
    25   1 H        0.860     0.232     0.955     1.531

Wiberg/Mayer (AO) data.
largest (>0.10) Wiberg bond orders for each atom

     #   Z sym  total        # sym  WBO       # sym  WBO       # sym  WBO
 ---------------------------------------------------------------------------
     1   6 C    3.904 --     2 N    0.988    16 H    0.960    17 H    0.957
                            15 H    0.952
     2   7 N    3.630 --     3 C    1.356     6 C    1.156     1 C    0.988
     3   6 C    3.765 --     2 N    1.356     4 N    1.260    18 H    0.953
     4   7 N    3.560 --     3 C    1.260     5 C    1.192    25 H    0.917
     5   6 C    3.887 --     6 C    1.325    13 N    1.198     4 N    1.192
     6   6 C    3.854 --     5 C    1.325     2 N    1.156     7 C    1.083
     7   6 C    3.907 --     8 O    1.652     9 N    1.087     6 C    1.083
     8   8 O    1.950 --     7 C    1.652     9 N    0.129
     9   7 N    3.495 --    11 C    1.117     7 C    1.087    10 C    0.974
                             8 O    0.129    12 O    0.125
    10   6 C    3.877 --     9 N    0.974    19 H    0.957    21 H    0.951
                            20 H    0.951
    11   6 C    3.908 --    12 O    1.697     9 N    1.117    13 N    1.012
    12   8 O    2.005 --    11 C    1.697     9 N    0.125    13 N    0.111
    13   7 N    3.509 --     5 C    1.198    14 C    1.015    11 C    1.012
                            12 O    0.111
    14   6 C    2.977 --    13 N    1.015    23 H    0.951    22 H    0.950
    15   1 H    0.978 --     1 C    0.952
    16   1 H    0.981 --     1 C    0.960
    17   1 H    0.978 --     1 C    0.957
    18   1 H    0.983 --     3 C    0.953
    19   1 H    0.975 --    10 C    0.957
    20   1 H    0.969 --    10 C    0.951
    21   1 H    0.969 --    10 C    0.951
    22   1 H    0.972 --    14 C    0.950
    23   1 H    0.972 --    14 C    0.951
    24   1 H    0.023
    25   1 H    0.945 --     4 N    0.917
 ---------------------------------------------------------------------------

molecular dipole:
                 x           y           z       tot (Debye)
 q only:        2.515      -1.597       0.016
   full:        2.655      -2.020       0.026       8.478

           -------------------------------------------------
          | TOTAL ENERGY              -42.115250806671 Eh   |
          | GRADIENT NORM               0.002739207950 Eh/α |
          | HOMO-LUMO GAP               0.437415088933 eV   |
           -------------------------------------------------

 * finished run on 2024/06/05 at 19:58:54.801
