   * xtb version 6.6.1 (8d0f1dd) compiled by 'conda@1efc2f54142f' on 2023-08-01
          program call               : xtb struc.xyz --opt loose --input .xc1 --gfn2

   ID    Z sym.   atoms
    1    7 N      1, 17
    2    6 C      2-6, 8, 9, 11-16, 18-23, 25, 26, 28-33
    3    8 O      7, 10, 24, 27
    4    1 H      34-72
constraining bond 10 41 to    4.9000000 Å, actual value:    2.7232089 Å

          :  Hamiltonian                  GFN2-xTB          :
 * total energy  :   -98.5580709 Eh     change       -0.4035485E-08 Eh
 * total energy  :   -98.8572720 Eh     change       -0.2992011E+00 Eh
 * total energy  :   -99.0436826 Eh     change       -0.1864106E+00 Eh
 * total energy  :   -99.1193155 Eh     change       -0.7563297E-01 Eh
 * total energy  :   -99.1488575 Eh     change       -0.2954193E-01 Eh
 * total energy  :   -99.1634763 Eh     change       -0.1461885E-01 Eh
 * total energy  :   -99.1743469 Eh     change       -0.1087063E-01 Eh
 * total energy  :   -99.1858236 Eh     change       -0.1147665E-01 Eh
 * total energy  :   -99.2039253 Eh     change       -0.1810170E-01 Eh
 * total energy  :   -99.2161701 Eh     change       -0.1224486E-01 Eh
 * total energy  :   -99.3415913 Eh     change       -0.6760435E-04 Eh
 * total energy  :   -99.3416601 Eh     change       -0.6884416E-04 Eh
 * total energy  :   -99.3417381 Eh     change       -0.7800001E-04 Eh
 * total energy  :   -99.3418134 Eh     change       -0.7526210E-04 Eh
 * total energy  :   -99.3418806 Eh     change       -0.6725798E-04 Eh
 * total energy  :   -99.3419475 Eh     change       -0.6684277E-04 Eh
 * total energy  :   -99.3419775 Eh     change       -0.3008116E-04 Eh
 * total energy  :   -99.3420458 Eh     change       -0.6826061E-04 Eh
 * total energy  :   -99.3420717 Eh     change       -0.2586618E-04 Eh
   *** GEOMETRY OPTIMIZATION CONVERGED AFTER 80 ITERATIONS ***

 final structure:
================
72
 xtb: 6.6.1 (8d0f1dd)
N           -2.56159978294033        3.18823274049833        2.64711908456621
C           -2.22603815410461        2.41290723305077        1.72753417793260
C           -3.10591016695687        2.08693258935022        0.54375540357512
C           -3.52876107843335        0.63239805166188        0.61037649106119
C           -4.23177000324612        0.05195821684018       -0.44397410588491
C           -4.59359627168954       -1.28753152915267       -0.44361472737007
O           -5.26939619367689       -1.92685433441806       -1.41521505076814
C           -5.77221051272430       -1.19324135127833       -2.50905483501289
C           -4.22507554687544       -2.10519987883872        0.67328875526985
O           -4.54664281121607       -3.40290056826979        0.62544475161677
C           -4.24563573787815       -4.15680237821854        1.78051271064828
C           -3.57029506700825       -1.47396225944488        1.69696751787988
C           -3.22156485260500       -0.16039012471209        1.72453744712964
C           -2.24617231022226        2.34874914083228       -0.73244971442313
C           -1.46734958653123        1.17324195820575       -1.33398890806440
C           -0.43990795875159        0.52761096302152       -0.39825676538046
N            0.48531787013414       -0.31129115227171       -1.13037514316285
C            1.82615910525255       -0.39601445868947       -0.59994486682323
C            2.87406820017913       -0.61512609005845       -1.70811913368894
C            4.24583394648704       -0.35319007765386       -1.15999684879547
C            4.83422682854072        0.89974061432032       -1.27946349832272
C            6.07916951765019        1.15708102879797       -0.73038115360868
C            6.76724743590882        0.16604647655223       -0.04020559204450
O            7.97147812287820        0.30499209431175        0.53746492325022
C            8.64489172308513        1.54016994462425        0.44801431683932
C            6.17407968585182       -1.12400907748623        0.08677020071145
O            6.90486840642066       -2.02674359181798        0.76396557877831
C            6.40792979259309       -3.33403975064540        0.93162350932917
C            4.92599928971072       -1.35544169134408       -0.47410994597713
C           -0.06391006689086       -1.56999689444941       -1.56354292176109
C           -4.39111982864876        2.96913363519987        0.50564260358993
C           -5.32240515089711        2.66465823477838        1.67601691259907
C           -4.08539279740485        4.46353416091767        0.46473784640495
H           -4.50929381752067        0.66711669183854       -1.28511243115390
H           -6.45610258169024       -0.40539437330371       -2.18068101485923
H           -6.31575749434162       -1.91365405505358       -3.11702974481305
H           -4.96515809827475       -0.75456636048397       -3.10431614350477
H           -4.82126613601169       -3.79922471380568        2.63953030865242
H           -4.51727781160342       -5.18533815117529        1.55496936662925
H           -3.17951706900120       -4.09160144628385        2.01952102710226
H           -0.96610928938502       -0.05715270318156        0.37493602715411
H           -2.72711506650453        0.26468286600017        2.58331958649331
H           -2.90913386536288        2.71843604808050       -1.51612108173939
H           -1.54315849178764        3.15237618310850       -0.50258810214741
H           -2.16365851153865        0.41184987524907       -1.68295222151786
H           -0.92809611239615        1.55305948828176       -2.20489105155154
H           -1.24464911981435        1.92357421323712        1.68245316394008
H            0.14039851418030        1.31851863384919        0.08086623397527
H            1.91497530138022       -1.20284883080599        0.14446496477347
H            2.06194466075917        0.54672928814137       -0.10144089358001
H            2.65738447004838        0.07263120198695       -2.52543642821810
H            2.81570769026520       -1.63553196057075       -2.08614134800175
H            4.32035389372859        1.68446076393472       -1.81303836504340
H            6.51137343316121        2.13780441747874       -0.84435157655838
H            8.07994645336785        2.33957957441255        0.93714417821637
H            8.84064989790283        1.81452261945794       -0.59259699675516
H            9.59003052611082        1.39603470702649        0.96790182823460
H            7.16724342951552       -3.86506146516138        1.50243146907544
H            5.46717045392043       -3.33584933914953        1.49098382535546
H            6.26299055574722       -3.83315690225212       -0.03114778368178
H            4.46974102132819       -2.32900191077959       -0.38873074503771
H           -0.98610376023207       -1.40057553579666       -2.11424914924017
H           -0.28324756055782       -2.23733009078864       -0.71745093539545
H            0.64031619448819       -2.06764959570030       -2.22552046467015
H           -4.91867017148216        2.70777350269294       -0.41929648073453
H           -4.83202928146451        2.90447646044923        2.61420727919993
H           -5.61358987694407        1.61709692287608        1.68802859698289
H           -6.22163294168603        3.26944708354176        1.59405698603813
H           -3.60864161243286        4.77412692087263        1.38954886676142
H           -3.44085880382008        4.72383964919846       -0.37017496072376
H           -5.01512201207041        5.01675585570103        0.35897211425704
H           -1.89403745902437        3.36853211519523        3.39011791854115

          :  Hamiltonian                  GFN2-xTB          :
         :: total energy             -99.342071682447 Eh    ::
         :: gradient norm              0.002833521984 Eh/a0 ::
         :: HOMO-LUMO gap              0.721490935958 eV    ::
         :: SCC energy              -100.701385190264 Eh    ::
         :: -> dispersion             -0.073761075772 Eh    ::
         :: repulsion energy           1.357940081128 Eh    ::

    * Orbital Energies and Occupations

         #    Occupation            Energy/Eh            Energy/eV
      -------------------------------------------------------------
         1        2.0000           -0.8197030             -22.3053
       ...           ...                  ...                  ...
        78        1.9964           -0.5328432             -14.4994
        79        1.9961           -0.5314077             -14.4603
        80        1.9958           -0.5304617             -14.4346
        81        1.9937           -0.5240130             -14.2591
        82        1.9915           -0.5191951             -14.1280
        83        1.9903           -0.5171732             -14.0730
        84        1.9888           -0.5147934             -14.0082
        85        1.9617           -0.4951319             -13.4732
        86        1.9594           -0.4941973             -13.4478
        87        1.8627           -0.4741118             -12.9012
        88        1.8107           -0.4685765             -12.7506
        89        1.7541           -0.4639341             -12.6243
        90        1.6929           -0.4598508             -12.5132 (HOMO)
        91        1.0163           -0.4333365             -11.7917 (LUMO)
        92        0.0065           -0.3422219              -9.3123
        93        0.0020           -0.3237895              -8.8108
        94        0.0014           -0.3180998              -8.6559
        95        0.0013           -0.3160420              -8.5999
        96        0.0011           -0.3141472              -8.5484
        97        0.0000           -0.1937389              -5.2719
        98        0.0000           -0.1928217              -5.2469
        99                         -0.1091137              -2.9691
       100                         -0.0687052              -1.8696
       101                         -0.0674442              -1.8353
       ...                                ...                  ...
       171                          0.5670266              15.4296
      -------------------------------------------------------------
                  HL-Gap            0.0265143 Eh            0.7215 eV

     #   Z          covCN         q      C6AA      α(0)
     1   7 N        1.774    -0.257    27.500     7.765
     2   6 C        2.825     0.102    25.726     8.311
     3   6 C        3.906     0.009    20.361     6.414
     4   6 C        2.984     0.017    27.635     8.623
     5   6 C        2.917    -0.079    29.973     8.978
     6   6 C        2.868     0.133    25.091     8.211
     7   8 O        1.706    -0.220    17.656     5.673
     8   6 C        3.644     0.026    20.482     6.505
     9   6 C        2.877     0.144    24.856     8.173
    10   8 O        1.705    -0.211    17.504     5.649
    11   6 C        3.661     0.025    20.426     6.484
    12   6 C        2.007    -0.094    33.617     9.364
    13   6 C        2.916    -0.034    28.857     8.809
    14   6 C        3.806    -0.065    21.742     6.638
    15   6 C        3.800    -0.070    21.836     6.653
    16   6 C        3.749    -0.001    20.662     6.483
    17   7 N        2.727    -0.109    23.374     7.180
    18   6 C        3.753     0.003    20.593     6.471
    19   6 C        3.808    -0.072    21.877     6.658
    20   6 C        2.969     0.012    27.744     8.640
    21   6 C        2.921    -0.043    29.063     8.841
    22   6 C        2.912    -0.064    29.605     8.922
    23   6 C        2.864     0.136    25.018     8.199
    24   8 O        1.706    -0.211    17.513     5.650
    25   6 C        3.645     0.022    20.536     6.513
    26   6 C        2.862     0.137    25.010     8.197
    27   8 O        1.706    -0.214    17.560     5.658
    28   6 C        3.645     0.024    20.506     6.508
    29   6 C        2.919    -0.075    29.881     8.964
    30   6 C        3.704    -0.049    21.600     6.645
    31   6 C        3.853    -0.007    20.666     6.466
    32   6 C        3.755    -0.119    22.826     6.812
    33   6 C        3.755    -0.120    22.858     6.817
    34   1 H        0.926     0.063     2.169     2.303
    35   1 H        0.924     0.058     2.217     2.329
    36   1 H        0.925     0.086     1.920     2.167
    37   1 H        0.924     0.052     2.295     2.369
    38   1 H        0.924     0.064     2.149     2.293
    39   1 H        0.925     0.082     1.954     2.186
    40   1 H        0.924     0.058     2.219     2.330
    41   1 H        0.923     0.034     2.533     2.489
    42   1 H        0.926     0.061     2.187     2.312
    43   1 H        0.924     0.059     2.211     2.325
    44   1 H        0.924     0.049     2.336     2.390
    45   1 H        0.925     0.046     2.376     2.411
    46   1 H        0.924     0.060     2.200     2.319
    47   1 H        0.924     0.022     2.702     2.571
    48   1 H        0.924     0.047     2.362     2.403
    49   1 H        0.923     0.038     2.478     2.462
    50   1 H        0.924     0.049     2.329     2.386
    51   1 H        0.925     0.065     2.142     2.289
    52   1 H        0.925     0.056     2.250     2.346
    53   1 H        0.926     0.057     2.238     2.339
    54   1 H        0.926     0.063     2.165     2.301
    55   1 H        0.924     0.059     2.209     2.324
    56   1 H        0.924     0.061     2.186     2.312
    57   1 H        0.925     0.086     1.916     2.164
    58   1 H        0.925     0.085     1.923     2.169
    59   1 H        0.924     0.055     2.262     2.352
    60   1 H        0.924     0.059     2.215     2.327
    61   1 H        0.926     0.056     2.249     2.345
    62   1 H        0.925     0.058     2.222     2.331
    63   1 H        0.923     0.039     2.464     2.455
    64   1 H        0.925     0.064     2.153     2.295
    65   1 H        0.924     0.041     2.439     2.442
    66   1 H        0.925     0.072     2.066     2.248
    67   1 H        0.925     0.036     2.497     2.471
    68   1 H        0.925     0.055     2.255     2.349
    69   1 H        0.925     0.068     2.103     2.268
    70   1 H        0.925     0.040     2.446     2.446
    71   1 H        0.925     0.057     2.240     2.341
    72   1 H        0.860     0.165     1.306     1.790

Wiberg/Mayer (AO) data.
largest (>0.10) Wiberg bond orders for each atom

     #   Z sym  total        # sym  WBO       # sym  WBO       # sym  WBO
 ---------------------------------------------------------------------------
     1   7 N    3.007 --     2 C    1.956    72 H    0.937
     2   6 C    3.937 --     1 N    1.956     3 C    0.988    47 H    0.925
     3   6 C    3.953 --     2 C    0.988     4 C    0.970    14 C    0.947
                            31 C    0.941
     4   6 C    3.862 --     5 C    1.385    13 C    1.319     3 C    0.970
     5   6 C    3.949 --     6 C    1.388     4 C    1.385    34 H    0.951
     6   6 C    3.832 --     5 C    1.388     9 C    1.165     7 O    1.108
     7   8 O    2.243 --     6 C    1.108     8 C    0.971
     8   6 C    3.920 --    36 H    0.975    35 H    0.972    37 H    0.972
                             7 O    0.971
     9   6 C    3.842 --    12 C    1.382     6 C    1.165    10 O    1.119
    10   8 O    2.243 --     9 C    1.119    11 C    0.970
    11   6 C    3.915 --    39 H    0.978    38 H    0.971    40 H    0.970
                            10 O    0.970
    12   6 C    3.073 --    13 C    1.476     9 C    1.382
    13   6 C    3.902 --    12 C    1.476     4 C    1.319    42 H    0.944
    14   6 C    3.979 --    15 C    1.007    44 H    0.971    43 H    0.967
                             3 C    0.947
    15   6 C    3.978 --    14 C    1.007    16 C    0.994    46 H    0.970
                            45 H    0.966
    16   6 C    3.967 --    17 N    1.003    15 C    0.994    48 H    0.966
                            41 H    0.950
    17   7 N    3.093 --    30 C    1.019    18 C    1.009    16 C    1.003
    18   6 C    3.963 --    17 N    1.009    19 C    0.971    50 H    0.969
                            49 H    0.955
    19   6 C    3.977 --    20 C    1.015    18 C    0.971    51 H    0.970
                            52 H    0.967
    20   6 C    3.919 --    29 C    1.386    21 C    1.384    19 C    1.015
    21   6 C    3.920 --    22 C    1.428    20 C    1.384    53 H    0.966
    22   6 C    3.945 --    21 C    1.428    23 C    1.369    54 H    0.962
    23   6 C    3.864 --    22 C    1.369    26 C    1.204    24 O    1.122
    24   8 O    2.247 --    23 C    1.122    25 C    0.974
    25   6 C    3.922 --    57 H    0.976    24 O    0.974    56 H    0.970
                            55 H    0.970
    26   6 C    3.873 --    29 C    1.384    23 C    1.204    27 O    1.116
    27   8 O    2.249 --    26 C    1.116    28 C    0.976
    28   6 C    3.925 --    58 H    0.976    27 O    0.976    59 H    0.971
                            60 H    0.971
    29   6 C    3.946 --    20 C    1.386    26 C    1.384    61 H    0.961
    30   6 C    3.967 --    17 N    1.019    62 H    0.975    64 H    0.975
                            63 H    0.961
    31   6 C    3.963 --    32 C    1.008    33 C    1.007    65 H    0.954
                             3 C    0.941
    32   6 C    3.968 --    31 C    1.008    67 H    0.980    68 H    0.979
                            66 H    0.968
    33   6 C    3.969 --    31 C    1.007    70 H    0.981    71 H    0.978
                            69 H    0.969
    34   1 H    0.988 --     5 C    0.951
    35   1 H    0.991 --     8 C    0.972
    36   1 H    0.991 --     8 C    0.975
    37   1 H    0.991 --     8 C    0.972
    38   1 H    0.987 --    11 C    0.971
    39   1 H    0.992 --    11 C    0.978
    40   1 H    0.989 --    11 C    0.970
    41   1 H    0.977 --    16 C    0.950
    42   1 H    0.979 --    13 C    0.944
    43   1 H    0.994 --    14 C    0.967
    44   1 H    0.995 --    14 C    0.971
    45   1 H    0.996 --    15 C    0.966
    46   1 H    0.993 --    15 C    0.970
    47   1 H    0.971 --     2 C    0.925
    48   1 H    0.997 --    16 C    0.966
    49   1 H    0.975 --    18 C    0.955
    50   1 H    0.997 --    18 C    0.969
    51   1 H    0.993 --    19 C    0.970
    52   1 H    0.994 --    19 C    0.967
    53   1 H    0.995 --    21 C    0.966
    54   1 H    0.994 --    22 C    0.962
    55   1 H    0.988 --    25 C    0.970
    56   1 H    0.988 --    25 C    0.970
    57   1 H    0.992 --    25 C    0.976
    58   1 H    0.992 --    28 C    0.976
    59   1 H    0.990 --    28 C    0.971
    60   1 H    0.989 --    28 C    0.971
    61   1 H    0.995 --    29 C    0.961
    62   1 H    0.993 --    30 C    0.975
    63   1 H    0.973 --    30 C    0.961
    64   1 H    0.992 --    30 C    0.975
    65   1 H    0.986 --    31 C    0.954
    66   1 H    0.987 --    32 C    0.968
    67   1 H    0.995 --    32 C    0.980
    68   1 H    0.992 --    32 C    0.979
    69   1 H    0.988 --    33 C    0.969
    70   1 H    0.995 --    33 C    0.981
    71   1 H    0.991 --    33 C    0.978
    72   1 H    0.964 --     1 N    0.937
 ---------------------------------------------------------------------------

molecular dipole:
                 x           y           z       tot (Debye)
 q only:        0.810       0.078      -0.336
   full:        1.043      -0.013      -0.286       2.749

           -------------------------------------------------
          | TOTAL ENERGY              -99.342071682447 Eh   |
          | GRADIENT NORM               0.002833521984 Eh/α |
          | HOMO-LUMO GAP               0.721490935958 eV   |
           -------------------------------------------------

 * finished run on 2024/04/06 at 11:13:08.757
