   * xtb version 6.6.1 (8d0f1dd) compiled by 'conda@1efc2f54142f' on 2023-08-01
          program call               : xtb struc.xyz --opt loose --input .xc1 --gfn2

   ID    Z sym.   atoms
    1    7 N      1, 17
    2    6 C      2-6, 8, 9, 11-16, 18-23, 25, 26, 28-33
    3    8 O      7, 10, 24, 27
    4    1 H      34-72
constraining bond 22 25 to    6.0000000 Å, actual value:    2.8382177 Å

          :  Hamiltonian                  GFN2-xTB          :
 * total energy  :   -97.6191582 Eh     change       -0.4035485E-08 Eh
 * total energy  :   -98.0169318 Eh     change       -0.3977736E+00 Eh
 * total energy  :   -98.2755424 Eh     change       -0.2586106E+00 Eh
 * total energy  :   -98.4664464 Eh     change       -0.1909040E+00 Eh
 * total energy  :   -98.6252709 Eh     change       -0.1588245E+00 Eh
 * total energy  :   -98.7812713 Eh     change       -0.1560004E+00 Eh
 * total energy  :   -98.9242172 Eh     change       -0.1429459E+00 Eh
 * total energy  :   -99.0306194 Eh     change       -0.1064022E+00 Eh
 * total energy  :   -99.1050704 Eh     change       -0.7445105E-01 Eh
 * total energy  :   -99.1637140 Eh     change       -0.5864362E-01 Eh
 * total energy  :   -99.2900809 Eh     change       -0.8357665E-03 Eh
 * total energy  :   -99.2910749 Eh     change       -0.9940261E-03 Eh
 * total energy  :   -99.2917950 Eh     change       -0.7200675E-03 Eh
 * total energy  :   -99.2921551 Eh     change       -0.3601689E-03 Eh
 * total energy  :   -99.2923255 Eh     change       -0.1704261E-03 Eh
 * total energy  :   -99.2924186 Eh     change       -0.9301782E-04 Eh
 * total energy  :   -99.2924862 Eh     change       -0.6759058E-04 Eh
 * total energy  :   -99.2925472 Eh     change       -0.6107779E-04 Eh
 * total energy  :   -99.2925967 Eh     change       -0.4950630E-04 Eh
   *** GEOMETRY OPTIMIZATION CONVERGED AFTER 30 ITERATIONS ***

 final structure:
================
72
 xtb: 6.6.1 (8d0f1dd)
N           -1.93988478076680        2.84137699156292        2.20846533842755
C           -1.91808912830979        2.12926840493538        1.18321380485110
C           -3.08567979833188        1.92807674203688        0.25621160787641
C           -3.56713983142629        0.48891135114435        0.35446317128039
C           -4.50462410127485        0.00791283072321       -0.56198272076641
C           -4.97166646962028       -1.29480101020451       -0.50420347967184
O           -5.87776403984534       -1.83522874192086       -1.34346608313517
C           -6.49843704116567       -1.01841303732997       -2.30852268718884
C           -4.47888085379496       -2.17116174935663        0.50139327547888
O           -4.96956195506745       -3.42537332827134        0.46905510877410
C           -4.56622177687360       -4.34566325889008        1.45623320682242
C           -3.55857325705176       -1.68311268234167        1.41550936667247
C           -3.11213293603548       -0.36932946445654        1.34362274339619
C           -2.55217007181566        2.21288529606130       -1.17318229564298
C           -1.67703182806598        1.09425337728099       -1.76855603858428
C           -0.34155913792264        0.99589559219415       -1.14229476307692
N            0.25305581886120       -0.12308707028561       -0.75473117317193
C            1.63434113051747       -0.10588486241751       -0.33684413389607
C            2.57648981194490       -0.64410070067418       -1.43478027763101
C            3.99466400764149       -0.30036994439674       -1.08681837556965
C            4.50325989951759        0.96032244989490       -1.42109931221756
C            5.77143600835895        1.33224796820221       -1.07213524204162
C            6.64999418269913        0.46024916226724       -0.34724300538630
O            7.79819314649821        0.77632201083556       -0.01315665379732
C           11.36284678779393        1.93100136168200        1.01311715720775
C            6.09146529070368       -0.86099361221831       -0.01875327562672
O            6.94488421842448       -1.64699975742325        0.64371521136104
C            6.57366430986249       -2.95619325953662        1.00313525818845
C            4.79958516510616       -1.19378739932573       -0.38511767302882
C           -0.40192914921765       -1.40817639764181       -0.81883629243171
C           -4.28499357972286        2.87173608783136        0.56868256480840
C           -4.90530573447575        2.55596111438617        1.92739535433405
C           -3.91635963269740        4.35107399649683        0.50021004089994
H           -4.88317648108190        0.66752649999917       -1.32496433737173
H           -7.02462166184943       -0.17910006355721       -1.84411869794892
H           -7.21823073999843       -1.65944548999304       -2.81345997045305
H           -5.77752378229115       -0.64034789122407       -3.04069481109204
H           -4.83845557142369       -4.00373427840822        2.45904245634289
H           -5.10018584855807       -5.26684183733747        1.23193961226612
H           -3.48830317888103       -4.53244752497078        1.41363610058335
H           -3.18699786266463       -2.31660924727160        2.20435335636176
H           -2.41701258171808       -0.01874124227451        2.09049170774635
H           -3.40048551716063        2.36607443928060       -1.83888818028802
H           -1.97817540543857        3.13993479027670       -1.15410133121901
H           -2.21206429783625        0.14721478618091       -1.73099998930916
H           -1.52275904827886        1.34878443970569       -2.82504617038903
H           -1.01689782634702        1.59593267167011        0.82359650644759
H            0.25553180248749        1.89610008811593       -1.10803255144069
H            1.74497206276315       -0.70826114194138        0.56876793442228
H            1.92348087517522        0.92050893531071       -0.10140660383824
H            2.30687860171211       -0.17293641494918       -2.38251528383785
H            2.45387541500642       -1.72279061071741       -1.53595462815640
H            3.88191661622020        1.64991058065621       -1.97573878969853
H            6.16029101432748        2.30310546978777       -1.33585801520804
H           10.90407252861835        2.71483010938926        1.57729560302548
H           11.53353365919486        2.04907779736945       -0.03576475963756
H           11.61016435731274        1.00717227166741        1.49133449766469
H            7.43971448417469       -3.37755643616475        1.50991371916316
H            5.71825014750218       -2.95657591091389        1.68623768665765
H            6.33852580803996       -3.56057818876943        0.12175031487168
H            4.40528205043633       -2.16804126511619       -0.13437528840531
H           -0.52667050958674       -1.73591687745952       -1.85373842133125
H           -1.38345601304924       -1.36097225489298       -0.34164929893308
H            0.20193953796287       -2.14398075574956       -0.29306100799480
H           -5.04170904033945        2.67571371412304       -0.19966611685560
H           -4.18888085424909        2.75241876024869        2.71856074028343
H           -5.21905544915635        1.51642469051685        1.98457721734189
H           -5.77664621789837        3.18590126181825        2.08503588119031
H           -3.15373722010528        4.58425767392823        1.23690159704014
H           -3.56145222241463        4.63678660521341       -0.48642307948057
H           -4.79640484661225        4.94851046417854        0.72303509917677
H           -1.08488586143581        2.92801244391885        2.74855241739106

          :  Hamiltonian                  GFN2-xTB          :
         :: total energy             -99.292596743000 Eh    ::
         :: gradient norm              0.002570601162 Eh/a0 ::
         :: HOMO-LUMO gap              0.390049842663 eV    ::
         :: SCC energy              -100.677970916515 Eh    ::
         :: -> dispersion             -0.073107035903 Eh    ::
         :: repulsion energy           1.384032930067 Eh    ::

    * Orbital Energies and Occupations

         #    Occupation            Energy/Eh            Energy/eV
      -------------------------------------------------------------
         1        2.0000           -0.8138584             -22.1462
       ...           ...                  ...                  ...
        78        1.9980           -0.5327104             -14.4958
        79        1.9978           -0.5311524             -14.4534
        80        1.9972           -0.5270482             -14.3417
        81        1.9970           -0.5260392             -14.3143
        82        1.9952           -0.5186013             -14.1119
        83        1.9943           -0.5158981             -14.0383
        84        1.9934           -0.5134252             -13.9710
        85        1.9793           -0.4952893             -13.4775
        86        1.9627           -0.4858061             -13.2195
        87        1.9289           -0.4753330             -12.9345
        88        1.8611           -0.4641649             -12.6306
        89        1.8288           -0.4605739             -12.5329
        90        1.2682           -0.4317756             -11.7492 (HOMO)
        91        0.8242           -0.4174416             -11.3592 (LUMO)
        92        0.3644           -0.3992957             -10.8654
        93        0.0130           -0.3434739              -9.3464
        94        0.0033           -0.3215384              -8.7495
        95        0.0027           -0.3184677              -8.6659
        96        0.0012           -0.3059258              -8.3247
        97        0.0007           -0.2979343              -8.1072
        98        0.0000           -0.1959167              -5.3312
        99        0.0000           -0.1836368              -4.9970
       100                         -0.1397836              -3.8037
       101                         -0.0735078              -2.0002
       ...                                ...                  ...
       171                          0.6082080              16.5502
      -------------------------------------------------------------
                  HL-Gap            0.0143341 Eh            0.3900 eV

     #   Z          covCN         q      C6AA      α(0)
     1   7 N        1.774    -0.265    27.694     7.793
     2   6 C        2.827     0.101    25.745     8.314
     3   6 C        3.907     0.006    20.412     6.422
     4   6 C        2.974     0.003    27.962     8.674
     5   6 C        2.920    -0.080    30.006     8.983
     6   6 C        2.862     0.130    25.158     8.221
     7   8 O        1.706    -0.228    17.784     5.694
     8   6 C        3.644     0.027    20.460     6.502
     9   6 C        2.864     0.129    25.180     8.225
    10   8 O        1.706    -0.227    17.758     5.690
    11   6 C        3.645     0.026    20.468     6.502
    12   6 C        2.913    -0.075    29.865     8.961
    13   6 C        2.921    -0.053    29.314     8.879
    14   6 C        3.812    -0.065    21.738     6.636
    15   6 C        3.802    -0.070    21.833     6.652
    16   6 C        2.844     0.010    27.787     8.639
    17   7 N        2.729     0.016    20.977     6.802
    18   6 C        3.757    -0.017    20.929     6.522
    19   6 C        3.807    -0.069    21.821     6.650
    20   6 C        2.969     0.004    27.941     8.670
    21   6 C        2.913    -0.043    29.078     8.842
    22   6 C        2.909    -0.060    29.498     8.906
    23   6 C        2.828     0.202    23.719     7.981
    24   8 O        0.858    -0.362    20.934     6.134
    25   6 C        2.780    -0.103    30.572     9.056
    26   6 C        2.856     0.129    25.172     8.223
    27   8 O        1.706    -0.197    17.286     5.613
    28   6 C        3.644     0.024    20.503     6.509
    29   6 C        2.909    -0.078    29.960     8.975
    30   6 C        3.699    -0.072    22.044     6.715
    31   6 C        3.853    -0.007    20.670     6.466
    32   6 C        3.756    -0.119    22.833     6.813
    33   6 C        3.755    -0.119    22.841     6.815
    34   1 H        0.926     0.053     2.280     2.361
    35   1 H        0.924     0.055     2.257     2.349
    36   1 H        0.925     0.082     1.954     2.186
    37   1 H        0.924     0.048     2.344     2.394
    38   1 H        0.924     0.057     2.240     2.340
    39   1 H        0.925     0.082     1.955     2.186
    40   1 H        0.924     0.048     2.342     2.393
    41   1 H        0.926     0.053     2.280     2.361
    42   1 H        0.926     0.040     2.447     2.446
    43   1 H        0.925     0.062     2.177     2.307
    44   1 H        0.924     0.055     2.262     2.352
    45   1 H        0.925     0.067     2.121     2.277
    46   1 H        0.924     0.083     1.953     2.185
    47   1 H        0.922     0.006     2.952     2.687
    48   1 H        0.926     0.073     2.058     2.243
    49   1 H        0.924     0.068     2.102     2.267
    50   1 H        0.924     0.070     2.090     2.261
    51   1 H        0.924     0.057     2.239     2.340
    52   1 H        0.924     0.056     2.247     2.344
    53   1 H        0.925     0.045     2.384     2.415
    54   1 H        0.926     0.072     2.066     2.248
    55   1 H        0.927     0.093     1.851     2.127
    56   1 H        0.927     0.094     1.837     2.120
    57   1 H        0.927     0.093     1.852     2.128
    58   1 H        0.925     0.086     1.922     2.168
    59   1 H        0.924     0.054     2.272     2.357
    60   1 H        0.924     0.058     2.223     2.332
    61   1 H        0.926     0.045     2.386     2.415
    62   1 H        0.924     0.079     1.993     2.208
    63   1 H        0.924     0.081     1.972     2.196
    64   1 H        0.925     0.081     1.969     2.194
    65   1 H        0.924     0.038     2.474     2.460
    66   1 H        0.925     0.070     2.089     2.260
    67   1 H        0.925     0.036     2.503     2.474
    68   1 H        0.925     0.053     2.287     2.365
    69   1 H        0.925     0.062     2.175     2.307
    70   1 H        0.925     0.035     2.510     2.478
    71   1 H        0.925     0.056     2.251     2.346
    72   1 H        0.860     0.159     1.339     1.813

Wiberg/Mayer (AO) data.
largest (>0.10) Wiberg bond orders for each atom

     #   Z sym  total        # sym  WBO       # sym  WBO       # sym  WBO
 ---------------------------------------------------------------------------
     1   7 N    3.040 --     2 C    1.959    72 H    0.941
     2   6 C    3.931 --     1 N    1.959     3 C    0.994    47 H    0.901
     3   6 C    3.975 --     2 C    0.994     4 C    0.970    14 C    0.957
                            31 C    0.942
     4   6 C    3.947 --    13 C    1.412     5 C    1.368     3 C    0.970
     5   6 C    3.961 --     6 C    1.400     4 C    1.368    34 H    0.958
     6   6 C    3.904 --     5 C    1.400     9 C    1.219     7 O    1.102
     7   8 O    2.255 --     6 C    1.102     8 C    0.977
     8   6 C    3.931 --     7 O    0.977    36 H    0.976    35 H    0.973
                            37 H    0.973
     9   6 C    3.899 --    12 C    1.391     6 C    1.219    10 O    1.104
    10   8 O    2.254 --     9 C    1.104    11 C    0.977
    11   6 C    3.930 --    10 O    0.977    39 H    0.977    40 H    0.973
                            38 H    0.973
    12   6 C    3.961 --    13 C    1.403     9 C    1.391    41 H    0.964
    13   6 C    3.952 --     4 C    1.412    12 C    1.403    42 H    0.962
    14   6 C    3.971 --    15 C    0.979    44 H    0.972    43 H    0.968
                             3 C    0.957
    15   6 C    3.986 --    16 C    1.062    14 C    0.979    45 H    0.961
                            46 H    0.927
    16   6 C    3.609 --    17 N    1.415    15 C    1.062    48 H    0.956
    17   7 N    3.492 --    16 C    1.415    30 C    0.997    18 C    0.989
    18   6 C    3.947 --    17 N    0.989    50 H    0.967    49 H    0.963
                            19 C    0.962
    19   6 C    3.976 --    20 C    1.013    52 H    0.973    51 H    0.969
                            18 C    0.962
    20   6 C    3.804 --    29 C    1.379    21 C    1.318    19 C    1.013
    21   6 C    3.944 --    22 C    1.539    20 C    1.318    53 H    0.963
    22   6 C    3.796 --    21 C    1.539    23 C    1.152    54 H    0.963
    23   6 C    3.880 --    24 O    1.587    22 C    1.152    26 C    1.047
    24   8 O    1.721 --    23 C    1.587
    25   6 C    2.967 --    57 H    0.989    55 H    0.989    56 H    0.989
    26   6 C    3.737 --    29 C    1.404    27 O    1.144    23 C    1.047
    27   8 O    2.255 --    26 C    1.144    28 C    0.974
    28   6 C    3.926 --    58 H    0.976    27 O    0.974    59 H    0.971
                            60 H    0.971
    29   6 C    3.944 --    26 C    1.404    20 C    1.379    61 H    0.958
    30   6 C    3.956 --    17 N    0.997    64 H    0.977    62 H    0.965
                            63 H    0.961
    31   6 C    3.971 --    33 C    1.009    32 C    1.008    65 H    0.959
                             3 C    0.942
    32   6 C    3.977 --    31 C    1.008    67 H    0.981    68 H    0.981
                            66 H    0.973
    33   6 C    3.981 --    31 C    1.009    70 H    0.983    71 H    0.980
                            69 H    0.975
    34   1 H    0.996 --     5 C    0.958
    35   1 H    0.993 --     8 C    0.973
    36   1 H    0.992 --     8 C    0.976
    37   1 H    0.993 --     8 C    0.973
    38   1 H    0.992 --    11 C    0.973
    39   1 H    0.993 --    11 C    0.977
    40   1 H    0.993 --    11 C    0.973
    41   1 H    0.995 --    12 C    0.964
    42   1 H    0.998 --    13 C    0.962
    43   1 H    0.995 --    14 C    0.968
    44   1 H    0.996 --    14 C    0.972
    45   1 H    0.995 --    15 C    0.961
    46   1 H    0.971 --    15 C    0.927
    47   1 H    0.985 --     2 C    0.901
    48   1 H    0.994 --    16 C    0.956
    49   1 H    0.990 --    18 C    0.963
    50   1 H    0.994 --    18 C    0.967
    51   1 H    0.993 --    19 C    0.969
    52   1 H    0.995 --    19 C    0.973
    53   1 H    0.992 --    21 C    0.963
    54   1 H    0.989 --    22 C    0.963
    55   1 H    0.991 --    25 C    0.989
    56   1 H    0.991 --    25 C    0.989
    57   1 H    0.991 --    25 C    0.989
    58   1 H    0.992 --    28 C    0.976
    59   1 H    0.989 --    28 C    0.971
    60   1 H    0.988 --    28 C    0.971
    61   1 H    0.993 --    29 C    0.958
    62   1 H    0.984 --    30 C    0.965
    63   1 H    0.988 --    30 C    0.961
    64   1 H    0.993 --    30 C    0.977
    65   1 H    0.991 --    31 C    0.959
    66   1 H    0.990 --    32 C    0.973
    67   1 H    0.996 --    32 C    0.981
    68   1 H    0.993 --    32 C    0.981
    69   1 H    0.992 --    33 C    0.975
    70   1 H    0.997 --    33 C    0.983
    71   1 H    0.993 --    33 C    0.980
    72   1 H    0.969 --     1 N    0.941
 ---------------------------------------------------------------------------

molecular dipole:
                 x           y           z       tot (Debye)
 q only:       -0.061      -0.547      -0.570
   full:        0.044      -0.817      -0.727       2.782

           -------------------------------------------------
          | TOTAL ENERGY              -99.292596743000 Eh   |
          | GRADIENT NORM               0.002570601162 Eh/α |
          | HOMO-LUMO GAP               0.390049842663 eV   |
           -------------------------------------------------

 * finished run on 2024/04/06 at 11:14:10.653
