   * xtb version 6.6.1 (8d0f1dd) compiled by 'conda@1efc2f54142f' on 2023-08-01
          program call               : xtb struc.xyz --opt loose --input .xc1 --gfn2

   ID    Z sym.   atoms
    1    6 C      1, 3, 5-7, 10, 11, 14
    2    7 N      2, 4, 9, 13
    3    8 O      8, 12
    4    1 H      15-25
constraining bond 2 15 to    2.6866700 Å, actual value:    2.0850972 Å

          :  Hamiltonian                  GFN2-xTB          :
 * total energy  :   -42.8940245 Eh     change       -0.6650680E-10 Eh
 * total energy  :   -45.2171246 Eh     change       -0.2323100E+01 Eh
 * total energy  :   -48.9046653 Eh     change       -0.3687541E+01 Eh
 * total energy  :   -20.1438732 Eh     change        0.2876079E+02 Eh
 * total energy  :   -47.8973327 Eh     change       -0.2775346E+02 Eh
 * total energy  :   -47.9591016 Eh     change       -0.6176885E-01 Eh
 * total energy  :   -48.2004334 Eh     change       -0.2413318E+00 Eh
 * total energy  :   -48.4423205 Eh     change       -0.2418871E+00 Eh
 * total energy  :   -49.0230884 Eh     change       -0.5807679E+00 Eh
 * total energy  :   -49.2192818 Eh     change       -0.1961935E+00 Eh
 * total energy  :   -49.6435869 Eh     change       -0.1186195E-02 Eh
 * total energy  :   -49.6445927 Eh     change       -0.1005788E-02 Eh
 * total energy  :   -49.6450358 Eh     change       -0.4431458E-03 Eh
 * total energy  :   -49.6452765 Eh     change       -0.2406650E-03 Eh
 * total energy  :   -49.6453965 Eh     change       -0.1200544E-03 Eh
 * total energy  :   -49.6454919 Eh     change       -0.9531069E-04 Eh
 * total energy  :   -49.6455794 Eh     change       -0.8758573E-04 Eh
 * total energy  :   -49.6456250 Eh     change       -0.4556726E-04 Eh
 * total energy  :   -49.6456416 Eh     change       -0.1659404E-04 Eh
   *** GEOMETRY OPTIMIZATION CONVERGED AFTER 57 ITERATIONS ***

 final structure:
================
25
 xtb: 6.6.1 (8d0f1dd)
C            3.01613973519546        1.74389162786038       -0.03928844326815
N            2.44986112932196        0.55041009687967        0.00719028986354
C            2.70115709139635       -2.05946993511213       -0.09025466486756
N            1.40371586898840       -2.08238139256017       -0.01056241449623
C            0.57435168416215       -0.96069556117626        0.00677323932654
C            1.05863447706304        0.34552211857755       -0.00008003908823
C            0.11805095532724        1.46956123177947        0.00235631864265
O            0.45230603608100        2.63362881569914        0.00372250823193
N           -1.21792180565151        1.11222965211445        0.00350873403634
C           -2.21679442054101        2.17146832973115       -0.00531869067196
C           -1.71740419881410       -0.16548269781993        0.02404832693736
O           -2.89321939250646       -0.40313760023584        0.03551755057978
N           -0.76439737689174       -1.20257089733165        0.02927137522840
C           -1.31023164771248       -2.55089018960771        0.05151946684680
H            2.73751814923374        0.14544898159434        0.02769747469077
H            4.09438607190258        1.75215091221572       -0.01501334526974
H            2.45768839694557        2.66398614190157       -0.08986399506406
H            3.18399045832076       -3.03289862433039       -0.09779703334475
H           -1.70166474459424        3.12687381386497       -0.06477715207591
H           -2.87940424181433        2.04039284821259       -0.86017641952068
H           -2.81521770272668        2.12081156790600        0.90417851580175
H           -1.00767186683504       -3.08703497374563        0.95299823146811
H           -1.04136077797671       -3.10530222964490       -0.84934800473317
H           -2.39657098707407       -2.44774984560444        0.07078658380502
H            0.87449062329905       -2.96052364956783        0.03408320484206

          :  Hamiltonian                  GFN2-xTB          :
         :: total energy             -49.645641603549 Eh    ::
         :: gradient norm              0.003410177996 Eh/a0 ::
         :: HOMO-LUMO gap              1.291080150107 eV    ::
         :: SCC energy               -42.644937304911 Eh    ::
         :: -> dispersion             -0.022655137529 Eh    ::
         :: repulsion energy           1.558988095719 Eh    ::

    * Orbital Energies and Occupations

         #    Occupation            Energy/Eh            Energy/eV
      -------------------------------------------------------------
         1        2.0000           -0.8923889             -24.2831
       ...           ...                  ...                  ...
        25        1.9999           -0.6707197             -18.2512
        26        1.9999           -0.6657062             -18.1148
        27        1.9999           -0.6620679             -18.0158
        28        1.9997           -0.6456035             -17.5678
        29        1.9995           -0.6362823             -17.3141
        30        1.9994           -0.6347579             -17.2726
        31        1.9987           -0.6214029             -16.9092
        32        1.9962           -0.6047934             -16.4573
        33        1.9872           -0.5853052             -15.9270
        34        1.9640           -0.5687442             -15.4763
        35        1.9594           -0.5668268             -15.4241
        36        1.9571           -0.5659484             -15.4002
        37        1.6768           -0.5315061             -14.4630 (HOMO)
        38        0.4117           -0.4840598             -13.1719 (LUMO)
        39        0.0478           -0.4466998             -12.1553
        40        0.0022           -0.3972914             -10.8108
        41        0.0007           -0.3793568             -10.3228
        42        0.0000           -0.2946558              -8.0180
        43                         -0.2085845              -5.6759
        44                         -0.1681982              -4.5769
        45                         -0.1387045              -3.7743
        46                         -0.1258914              -3.4257
        47                         -0.0943343              -2.5670
        48                         -0.0348031              -0.9470
       ...                                ...                  ...
        67                          3.8864839             105.7566
      -------------------------------------------------------------
                  HL-Gap            0.0474463 Eh            1.2911 eV

     #   Z          covCN         q      C6AA      α(0)
     1   6 C        2.843    -0.029    28.719     8.783
     2   7 N        2.688    -0.017    21.587     6.901
     3   6 C        1.853    -0.128    34.739     9.521
     4   7 N        2.688    -0.017    21.588     6.901
     5   6 C        2.847     0.110    25.563     8.286
     6   6 C        2.923    -0.026    28.642     8.776
     7   6 C        2.768     0.268    22.485     7.766
     8   8 O        0.859    -0.364    20.975     6.140
     9   7 N        2.741    -0.072    22.631     7.065
    10   6 C        3.710    -0.064    21.869     6.683
    11   6 C        2.725     0.317    21.607     7.610
    12   8 O        0.860    -0.355    20.805     6.115
    13   7 N        2.745    -0.058    22.361     7.023
    14   6 C        3.699    -0.076    22.130     6.728
    15   1 H        0.952     0.274     0.790     1.389
    16   1 H        0.926     0.130     1.537     1.939
    17   1 H        0.926     0.168     1.278     1.768
    18   1 H        0.925     0.096     1.821     2.110
    19   1 H        0.925     0.117     1.636     2.000
    20   1 H        0.925     0.105     1.744     2.065
    21   1 H        0.925     0.104     1.751     2.069
    22   1 H        0.924     0.087     1.912     2.162
    23   1 H        0.924     0.087     1.907     2.160
    24   1 H        0.924     0.137     1.485     1.906
    25   1 H        0.859     0.208     1.068     1.619

Wiberg/Mayer (AO) data.
largest (>0.10) Wiberg bond orders for each atom

     #   Z sym  total        # sym  WBO       # sym  WBO       # sym  WBO
 ---------------------------------------------------------------------------
     1   6 C    3.606 --     2 N    1.520    16 H    0.959    17 H    0.941
     2   7 N    3.580 --     1 C    1.520     6 C    1.104    15 H    0.894
     3   6 C    2.603 --     4 N    1.563    18 H    0.934
     4   7 N    3.640 --     3 C    1.563     5 C    1.103    25 H    0.878
     5   6 C    3.850 --     6 C    1.369    13 N    1.215     4 N    1.103
     6   6 C    3.879 --     5 C    1.369     2 N    1.104     7 C    1.065
     7   6 C    3.953 --     8 O    1.671     9 N    1.120     6 C    1.065
     8   8 O    2.022 --     7 C    1.671     9 N    0.138
     9   7 N    3.553 --    11 C    1.129     7 C    1.120    10 C    0.968
                             8 O    0.138    12 O    0.132
    10   6 C    3.900 --     9 N    0.968    19 H    0.966    20 H    0.960
                            21 H    0.958
    11   6 C    3.954 --    12 O    1.698     9 N    1.129    13 N    1.041
    12   8 O    2.039 --    11 C    1.698     9 N    0.132    13 N    0.115
    13   7 N    3.532 --     5 C    1.215    11 C    1.041    14 C    0.977
                            12 O    0.115
    14   6 C    3.918 --    13 N    0.977    23 H    0.963    22 H    0.963
                            24 H    0.952
    15   1 H    0.924 --     2 N    0.894
    16   1 H    0.981 --     1 C    0.959
    17   1 H    0.969 --     1 C    0.941
    18   1 H    0.954 --     3 C    0.934
    19   1 H    0.983 --    10 C    0.966
    20   1 H    0.980 --    10 C    0.960
    21   1 H    0.979 --    10 C    0.958
    22   1 H    0.986 --    14 C    0.963
    23   1 H    0.986 --    14 C    0.963
    24   1 H    0.979 --    14 C    0.952
    25   1 H    0.927 --     4 N    0.878
 ---------------------------------------------------------------------------

molecular dipole:
                 x           y           z       tot (Debye)
 q only:        2.158      -1.076       0.009
   full:        2.174      -1.803       0.039       7.178

           -------------------------------------------------
          | TOTAL ENERGY              -49.645641603549 Eh   |
          | GRADIENT NORM               0.003410177996 Eh/α |
          | HOMO-LUMO GAP               1.291080150107 eV   |
           -------------------------------------------------

 * finished run on 2024/06/05 at 19:58:05.340
