   * xtb version 6.6.1 (8d0f1dd) compiled by 'conda@1efc2f54142f' on 2023-08-01
          program call               : xtb xtbopt.xyz --opt crude --input .xc2 --gfn2

   ID    Z sym.   atoms
    1    6 C      1, 3, 5-7, 10, 11, 14
    2    7 N      2, 4, 9, 13
    3    8 O      8, 12
    4    1 H      15-25

          :  Hamiltonian                  GFN2-xTB          :
 * total energy  :   -42.0901875 Eh     change        0.1421085E-13 Eh
 * total energy  :   -42.0919470 Eh     change       -0.1759534E-02 Eh
 * total energy  :   -42.0981221 Eh     change       -0.6175050E-02 Eh
 * total energy  :   -42.1200635 Eh     change       -0.2194140E-01 Eh
 * total energy  :   -42.1769132 Eh     change       -0.5684969E-01 Eh
 * total energy  :   -42.2414541 Eh     change       -0.6454095E-01 Eh
 * total energy  :   -42.2422278 Eh     change       -0.7736283E-03 Eh
 * total energy  :   -42.2474297 Eh     change       -0.5201884E-02 Eh
 * total energy  :   -42.2456958 Eh     change        0.1733888E-02 Eh
 * total energy  :   -42.2478697 Eh     change       -0.2173958E-02 Eh
 * total energy  :   -42.2479165 Eh     change       -0.4680735E-04 Eh
   *** GEOMETRY OPTIMIZATION CONVERGED AFTER 11 ITERATIONS ***

 final structure:
================
25
 xtb: 6.6.1 (8d0f1dd)
C            3.21837994621255        1.13840470360417        0.01686295887191
N            2.27390085382338        0.05296430288983       -0.00083512918813
C            2.54418370867336       -1.24388304181835       -0.00788053608892
N            1.39183534114091       -1.95326304657645       -0.00723348646083
C            0.35404126548307       -1.06846925140360        0.00016990265951
C            0.90920015012267        0.20088202776794        0.00475035833666
C            0.08116147157556        1.39525760869659       -0.00346274424582
O            0.48669773608148        2.53240804493379       -0.01701389593192
N           -1.27112615391463        1.06618302132017        0.00158784532309
C           -2.22866410179035        2.16537173891234       -0.00023701263850
C           -1.84628961872096       -0.19243585558302        0.00369288968381
O           -3.03255126866293       -0.35812707717336        0.00638634524322
N           -0.96713763729335       -1.29962615554198        0.00080235869318
C           -1.52502092393502       -2.63780889350596       -0.00352755001832
H            3.71538338338869        1.19173043388659        0.98651187108579
H            3.97247514526406        0.99871595204209       -0.75641570924288
H            2.68049012992944        2.07047571799333       -0.15382529461863
H            3.52295005065861       -1.68245439360973       -0.00992855852496
H           -1.67329076563288        3.09960249229709        0.00762992088682
H           -2.85654846548756        2.10522695324826       -0.88854237973997
H           -2.86835902918729        2.09614125727874        0.87886238827714
H           -1.21298222111084       -3.18574171916318        0.88569292596645
H           -1.22506689210898       -3.17520759986343       -0.90337115411527
H           -2.60980758925372       -2.53656026158653        0.00420076796058
H            1.32657699884102       -2.96154841744458       -0.01370546427272

          :  Hamiltonian                  GFN2-xTB          :
         :: total energy             -42.247916538127 Eh    ::
         :: gradient norm              0.001719468160 Eh/a0 ::
         :: HOMO-LUMO gap              3.306751355366 eV    ::
         :: SCC energy               -42.776785826538 Eh    ::
         :: -> dispersion             -0.022655347757 Eh    ::
         :: repulsion energy           0.528755038045 Eh    ::

    * Orbital Energies and Occupations

         #    Occupation            Energy/Eh            Energy/eV
      -------------------------------------------------------------
         1        2.0000           -0.9182353             -24.9865
       ...           ...                  ...                  ...
        25        2.0000           -0.6689247             -18.2024
        26        2.0000           -0.6656018             -18.1119
        27        1.9999           -0.6573242             -17.8867
        28        1.9998           -0.6362947             -17.3145
        29        1.9997           -0.6313749             -17.1806
        30        1.9996           -0.6256183             -17.0239
        31        1.9996           -0.6228526             -16.9487
        32        1.9994           -0.6191582             -16.8482
        33        1.9978           -0.5972319             -16.2515
        34        1.9927           -0.5786085             -15.7447
        35        1.9806           -0.5629810             -15.3195
        36        1.9762           -0.5597083             -15.2304
        37        1.9743           -0.5584649             -15.1966 (HOMO)
        38        0.0689           -0.4369440             -11.8899 (LUMO)
        39        0.0101           -0.4060861             -11.0502
        40        0.0013           -0.3730438             -10.1510
        41        0.0000           -0.2889180              -7.8619
        42                         -0.2061138              -5.6086
        43                         -0.2002570              -5.4493
        44                         -0.1464948              -3.9863
        45                         -0.1323930              -3.6026
        46                         -0.0826800              -2.2498
        47                         -0.0494085              -1.3445
        48                         -0.0360042              -0.9797
       ...                                ...                  ...
        67                          0.5577468              15.1771
      -------------------------------------------------------------
                  HL-Gap            0.1215209 Eh            3.3068 eV

     #   Z          covCN         q      C6AA      α(0)
     1   6 C        3.692    -0.096    22.531     6.792
     2   7 N        2.835     0.089    19.693     6.591
     3   6 C        3.061     0.052    26.779     8.486
     4   7 N        2.798    -0.059    22.374     7.025
     5   6 C        3.044     0.116    25.407     8.267
     6   6 C        3.129    -0.024    28.407     8.726
     7   6 C        2.764     0.274    22.371     7.746
     8   8 O        0.858    -0.364    20.967     6.139
     9   7 N        2.746    -0.084    22.871     7.103
    10   6 C        3.711    -0.062    21.838     6.678
    11   6 C        2.729     0.318    21.597     7.608
    12   8 O        0.860    -0.354    20.776     6.111
    13   7 N        2.738    -0.058    22.358     7.023
    14   6 C        3.696    -0.073    22.066     6.720
    15   1 H        0.924     0.111     1.686     2.031
    16   1 H        0.925     0.107     1.721     2.051
    17   1 H        0.925     0.139     1.468     1.895
    18   1 H        0.926     0.127     1.555     1.950
    19   1 H        0.925     0.114     1.666     2.018
    20   1 H        0.925     0.100     1.789     2.092
    21   1 H        0.925     0.100     1.786     2.090
    22   1 H        0.925     0.083     1.952     2.185
    23   1 H        0.925     0.083     1.951     2.184
    24   1 H        0.925     0.129     1.543     1.942
    25   1 H        0.860     0.232     0.958     1.533

Wiberg/Mayer (AO) data.
largest (>0.10) Wiberg bond orders for each atom

     #   Z sym  total        # sym  WBO       # sym  WBO       # sym  WBO
 ---------------------------------------------------------------------------
     1   6 C    3.912 --     2 N    0.984    16 H    0.963    17 H    0.959
                            15 H    0.955
     2   7 N    3.697 --     3 C    1.404     6 C    1.168     1 C    0.984
     3   6 C    3.869 --     2 N    1.404     4 N    1.272    18 H    0.952
     4   7 N    3.593 --     3 C    1.272     5 C    1.191    25 H    0.918
     5   6 C    3.952 --     6 C    1.352    13 N    1.221     4 N    1.191
     6   6 C    3.913 --     5 C    1.352     2 N    1.168     7 C    1.059
     7   6 C    3.952 --     8 O    1.691     9 N    1.110     6 C    1.059
     8   8 O    2.040 --     7 C    1.691     9 N    0.151
     9   7 N    3.557 --    11 C    1.122     7 C    1.110    10 C    0.968
                             8 O    0.151    12 O    0.135
    10   6 C    3.910 --     9 N    0.968    19 H    0.968    21 H    0.963
                            20 H    0.963
    11   6 C    3.957 --    12 O    1.713     9 N    1.122    13 N    1.031
    12   8 O    2.063 --    11 C    1.713     9 N    0.135    13 N    0.122
    13   7 N    3.553 --     5 C    1.221    11 C    1.031    14 C    0.974
                            12 O    0.122
    14   6 C    3.923 --    13 N    0.974    22 H    0.971    23 H    0.970
                            24 H    0.963
    15   1 H    0.985 --     1 C    0.955
    16   1 H    0.986 --     1 C    0.963
    17   1 H    0.980 --     1 C    0.959
    18   1 H    0.983 --     3 C    0.952
    19   1 H    0.985 --    10 C    0.968
    20   1 H    0.984 --    10 C    0.963
    21   1 H    0.984 --    10 C    0.963
    22   1 H    0.990 --    14 C    0.971
    23   1 H    0.990 --    14 C    0.970
    24   1 H    0.983 --    14 C    0.963
    25   1 H    0.946 --     4 N    0.918
 ---------------------------------------------------------------------------

molecular dipole:
                 x           y           z       tot (Debye)
 q only:        2.597      -2.022       0.008
   full:        2.889      -2.551       0.013       9.796

           -------------------------------------------------
          | TOTAL ENERGY              -42.247916538127 Eh   |
          | GRADIENT NORM               0.001719468160 Eh/α |
          | HOMO-LUMO GAP               3.306751355366 eV   |
           -------------------------------------------------

 * finished run on 2024/06/05 at 19:58:00.915
