   * xtb version 6.6.1 (8d0f1dd) compiled by 'conda@1efc2f54142f' on 2023-08-01
          program call               : xtb struc.xyz --opt loose --input .xc1 --gfn2

   ID    Z sym.   atoms
    1    6 C      1, 3, 5-7, 10, 11, 14
    2    7 N      2, 4, 9, 13
    3    8 O      8, 12
    4    1 H      15-25
constraining bond 11 20 to    5.1400000 Å, actual value:    2.6644824 Å

          :  Hamiltonian                  GFN2-xTB          :
 * total energy  :   -31.3057838 Eh     change       -0.6650680E-10 Eh
 * total energy  :   -35.5523256 Eh     change       -0.4246542E+01 Eh
 * total energy  :   -38.7501892 Eh     change       -0.3197864E+01 Eh
 * total energy  :   -40.6602789 Eh     change       -0.1910090E+01 Eh
 * total energy  :   -41.5742549 Eh     change       -0.9139760E+00 Eh
 * total energy  :   -41.8115602 Eh     change       -0.2373052E+00 Eh
 * total energy  :   -41.8570175 Eh     change       -0.4545734E-01 Eh
 * total energy  :   -41.9094020 Eh     change       -0.5238449E-01 Eh
 * total energy  :   -41.9261010 Eh     change       -0.1669904E-01 Eh
 * total energy  :   -41.9366623 Eh     change       -0.1056128E-01 Eh
 * total energy  :   -42.0998614 Eh     change       -0.4178713E-02 Eh
 * total energy  :   -42.1027234 Eh     change       -0.2861919E-02 Eh
 * total energy  :   -42.1033552 Eh     change       -0.6318637E-03 Eh
 * total energy  :   -42.1037865 Eh     change       -0.4312331E-03 Eh
 * total energy  :   -42.1039514 Eh     change       -0.1649381E-03 Eh
 * total energy  :   -42.1040914 Eh     change       -0.1400361E-03 Eh
 * total energy  :   -42.1041763 Eh     change       -0.8482618E-04 Eh
 * total energy  :   -42.1042521 Eh     change       -0.7581709E-04 Eh
 * total energy  :   -42.1042860 Eh     change       -0.3393121E-04 Eh
   *** GEOMETRY OPTIMIZATION CONVERGED AFTER 32 ITERATIONS ***

 final structure:
================
25
 xtb: 6.6.1 (8d0f1dd)
C            3.23323482158990        1.11748691377375       -0.02213896590901
N            2.29857858380772        0.02433801122343       -0.01867316854757
C            2.59222016200048       -1.27282651991994       -0.04978857970853
N            1.45261211141978       -2.00257453985265       -0.01420600200265
C            0.39944345400853       -1.13895592722000        0.04264259947175
C            0.92627854625303        0.14668909082936        0.04285579556801
C            0.10314524094449        1.31712353685983        0.07816969700142
O            0.45432628613021        2.47507090617359        0.05358324668772
N           -1.29270017023722        0.96916730584380        0.14934406761546
C           -2.16871545929692        1.98085183327749        0.21625450907270
C           -1.83225511173828       -0.34975054173454        0.14629657957544
O           -3.01649002723763       -0.53557193634497        0.19099585013235
N           -0.92248106427309       -1.40231176556964        0.08576239846754
C           -1.42997903886850       -2.76169012427203        0.07723474632045
H            3.74319783124421        1.18323082417014        0.94026949312236
H            3.97658359005253        0.97538548297849       -0.80534469709332
H            2.68846104122887        2.04501823045788       -0.19351835054779
H            3.58043470743406       -1.68442343965460       -0.09896078121602
H           -1.77891716597686        2.98246794716514        0.22430717945130
H           -3.31700720771032        4.29570371007945       -1.47650213639251
H           -3.21647994154660        1.75451173765499        0.26437691267070
H           -1.10201350455629       -3.29772523657662        0.96836713873523
H           -1.09993384037342       -3.28372277450490       -0.82070025319190
H           -2.51759549544499       -2.70787601913404        0.07723797053241
H            1.40648316524651       -3.01137816410324       -0.02669363191568

          :  Hamiltonian                  GFN2-xTB          :
         :: total energy             -42.104286013427 Eh    ::
         :: gradient norm              0.002435130696 Eh/a0 ::
         :: HOMO-LUMO gap              0.213725870388 eV    ::
         :: SCC energy               -42.625052965088 Eh    ::
         :: -> dispersion             -0.022668461275 Eh    ::
         :: repulsion energy           0.520680627964 Eh    ::

    * Orbital Energies and Occupations

         #    Occupation            Energy/Eh            Energy/eV
      -------------------------------------------------------------
         1        2.0000           -0.9110872             -24.7919
       ...           ...                  ...                  ...
        25        2.0000           -0.6711659             -18.2634
        26        2.0000           -0.6690820             -18.2066
        27        2.0000           -0.6628919             -18.0382
        28        1.9999           -0.6331611             -17.2292
        29        1.9999           -0.6298326             -17.1386
        30        1.9999           -0.6277786             -17.0827
        31        1.9998           -0.6188990             -16.8411
        32        1.9997           -0.6143159             -16.7164
        33        1.9997           -0.6129409             -16.6790
        34        1.9982           -0.5853512             -15.9282
        35        1.9942           -0.5667034             -15.4208
        36        1.9902           -0.5585323             -15.1984
        37        1.0632           -0.4763509             -12.9622 (HOMO)
        38        0.8174           -0.4684966             -12.7484 (LUMO)
        39        0.1173           -0.4304019             -11.7118
        40        0.0176           -0.3995418             -10.8721
        41        0.0031           -0.3717682             -10.1163
        42        0.0000           -0.2875618              -7.8250
        43        0.0000           -0.2081835              -5.6650
        44                         -0.1971008              -5.3634
        45                         -0.1504919              -4.0951
        46                         -0.1459241              -3.9708
        47                         -0.0787748              -2.1436
        48                         -0.0541521              -1.4736
       ...                                ...                  ...
        67                          0.5496404              14.9565
      -------------------------------------------------------------
                  HL-Gap            0.0078543 Eh            0.2137 eV

     #   Z          covCN         q      C6AA      α(0)
     1   6 C        3.691    -0.094    22.481     6.785
     2   7 N        2.829     0.077    19.899     6.625
     3   6 C        3.048     0.047    26.900     8.506
     4   7 N        2.791    -0.058    22.356     7.022
     5   6 C        3.040     0.106    25.627     8.303
     6   6 C        3.108    -0.023    28.439     8.737
     7   6 C        2.775     0.254    22.730     7.809
     8   8 O        0.857    -0.362    20.931     6.134
     9   7 N        2.741    -0.032    21.859     6.944
    10   6 C        2.816    -0.022    28.539     8.753
    11   6 C        2.737     0.309    21.752     7.636
    12   8 O        0.859    -0.350    20.709     6.101
    13   7 N        2.737    -0.049    22.192     6.997
    14   6 C        3.699    -0.074    22.080     6.720
    15   1 H        0.924     0.108     1.713     2.047
    16   1 H        0.925     0.104     1.748     2.067
    17   1 H        0.925     0.134     1.505     1.919
    18   1 H        0.926     0.124     1.585     1.968
    19   1 H        0.926     0.135     1.501     1.916
    20   1 H        0.000     0.011     7.150     4.889
    21   1 H        0.926     0.130     1.531     1.935
    22   1 H        0.924     0.085     1.933     2.174
    23   1 H        0.925     0.083     1.946     2.181
    24   1 H        0.925     0.127     1.555     1.950
    25   1 H        0.860     0.229     0.970     1.543

Wiberg/Mayer (AO) data.
largest (>0.10) Wiberg bond orders for each atom

     #   Z sym  total        # sym  WBO       # sym  WBO       # sym  WBO
 ---------------------------------------------------------------------------
     1   6 C    3.917 --     2 N    0.987    16 H    0.965    17 H    0.962
                            15 H    0.956
     2   7 N    3.648 --     3 C    1.379     6 C    1.146     1 C    0.987
     3   6 C    3.821 --     2 N    1.379     4 N    1.267    18 H    0.953
     4   7 N    3.579 --     3 C    1.267     5 C    1.193    25 H    0.919
     5   6 C    3.899 --     6 C    1.328     4 N    1.193    13 N    1.190
     6   6 C    3.909 --     5 C    1.328     2 N    1.146     7 C    1.117
     7   6 C    3.868 --     8 O    1.676     6 C    1.117     9 N    0.984
     8   8 O    1.959 --     7 C    1.676     9 N    0.108
     9   7 N    3.614 --    10 C    1.347    11 C    1.015     7 C    0.984
                             8 O    0.108
    10   6 C    3.357 --     9 N    1.347    21 H    0.960    19 H    0.956
    11   6 C    3.905 --    12 O    1.708    13 N    1.087     9 N    1.015
    12   8 O    2.021 --    11 C    1.708    13 N    0.135
    13   7 N    3.565 --     5 C    1.190    11 C    1.087    14 C    0.971
                            12 O    0.135
    14   6 C    3.924 --    23 H    0.972    22 H    0.971    13 N    0.971
                            24 H    0.965
    15   1 H    0.983 --     1 C    0.956
    16   1 H    0.986 --     1 C    0.965
    17   1 H    0.982 --     1 C    0.962
    18   1 H    0.984 --     3 C    0.953
    19   1 H    0.981 --    10 C    0.956
    20   1 H    0.017
    21   1 H    0.982 --    10 C    0.960
    22   1 H    0.991 --    14 C    0.971
    23   1 H    0.991 --    14 C    0.972
    24   1 H    0.983 --    14 C    0.965
    25   1 H    0.947 --     4 N    0.919
 ---------------------------------------------------------------------------

molecular dipole:
                 x           y           z       tot (Debye)
 q only:        2.392      -2.015       0.013
   full:        2.629      -2.462       0.005       9.155

           -------------------------------------------------
          | TOTAL ENERGY              -42.104286013427 Eh   |
          | GRADIENT NORM               0.002435130696 Eh/α |
          | HOMO-LUMO GAP               0.213725870388 eV   |
           -------------------------------------------------

 * finished run on 2024/06/05 at 19:58:26.385
