   * xtb version 6.6.1 (8d0f1dd) compiled by 'conda@1efc2f54142f' on 2023-08-01
          program call               : xtb xtbopt.xyz --opt crude --input .xc2 --gfn2

   ID    Z sym.   atoms
    1    6 C      1, 3, 5-7, 10, 11, 14
    2    7 N      2, 4, 9, 13
    3    8 O      8, 12
    4    1 H      15-25
########################################################################
[WARNING] Please study the warnings concerning your input carefully
-1- readin_getIntValue: could not parse ''
########################################################################

          :  Hamiltonian                  GFN2-xTB          :
 * total energy  :   -42.0741699 Eh     change       -0.9023893E-12 Eh
 * total energy  :   -42.0759773 Eh     change       -0.1807415E-02 Eh
 * total energy  :   -42.0772929 Eh     change       -0.1315625E-02 Eh
 * total energy  :   -42.0781738 Eh     change       -0.8808858E-03 Eh
 * total energy  :   -42.0784908 Eh     change       -0.3169901E-03 Eh
   *** GEOMETRY OPTIMIZATION CONVERGED AFTER 5 ITERATIONS ***

 final structure:
================
25
 xtb: 6.6.1 (8d0f1dd)
C            2.65050323751622        0.87284260993808       -1.02546491569329
N            1.99132272495562       -0.12747279138786       -0.21446990303751
C            2.70964276404045       -1.06892761240508        0.45781928147637
N            2.31421680760512       -1.95059880256764        1.26248014899060
C           -0.18228261081155       -1.11574750667474       -0.18882423794646
C            0.58442378518403       -0.01127129745387       -0.05943531828512
C            0.10063131966799        1.27500117082030        0.30426647727859
O            0.69016980270927        2.24905833744621        0.65770276979788
N           -1.42740893103599        1.42788757775422        0.19382520729837
C           -1.94535463215242        2.65709510467922        0.81001779859748
C           -2.12230283915163        0.70447310445567       -0.55295096875277
O           -2.69056363965040       -0.01247371795160       -1.25481124212655
N           -0.78092739137653       -2.09088544974200       -0.47949853124865
C           -1.40787894924618       -3.30792437125576       -0.23705608596973
H            2.79956264105249        1.79919379694705       -0.46431660987413
H            3.61816946775791        0.49691390064843       -1.34893031917886
H            2.04387151279811        1.09131276124773       -1.90466032835664
H            3.77407093666565       -1.04147062724012        0.24406460999957
H           -1.32481498822298        2.87626098959767        1.67726584658284
H           -1.86997092060475        3.48706161168652        0.10743234032252
H           -2.98040563466616        2.51614715361439        1.10895960738610
H           -1.40898677613782       -3.57343401028855        0.82266374634462
H           -0.88416094317572       -4.07710170158238       -0.80845815114440
H           -2.43149587551221       -3.24707699876773       -0.61235684634405
H            1.34040064589697       -2.01062468991683        1.53590724178867

          :  Hamiltonian                  GFN2-xTB          :
         :: total energy             -42.078490829506 Eh    ::
         :: gradient norm              0.007024051545 Eh/a0 ::
         :: HOMO-LUMO gap              1.723106119702 eV    ::
         :: SCC energy               -42.690575685055 Eh    ::
         :: -> dispersion             -0.021247912734 Eh    ::
         :: repulsion energy           0.611877346984 Eh    ::

    * Orbital Energies and Occupations

         #    Occupation            Energy/Eh            Energy/eV
      -------------------------------------------------------------
         1        2.0000           -0.9481238             -25.7998
       ...           ...                  ...                  ...
        25        2.0000           -0.6760911             -18.3974
        26        2.0000           -0.6651630             -18.1000
        27        1.9999           -0.6404312             -17.4270
        28        1.9998           -0.6342652             -17.2592
        29        1.9997           -0.6293762             -17.1262
        30        1.9996           -0.6215570             -16.9134
        31        1.9994           -0.6157803             -16.7562
        32        1.9992           -0.6116899             -16.6449
        33        1.9992           -0.6106241             -16.6159
        34        1.9982           -0.5982822             -16.2801
        35        1.9843           -0.5640210             -15.3478
        36        1.8562           -0.5279300             -14.3657
        37        1.7974           -0.5219903             -14.2041 (HOMO)
        38        0.2797           -0.4586673             -12.4810 (LUMO)
        39        0.0646           -0.4335970             -11.7988
        40        0.0192           -0.4140393             -11.2666
        41        0.0033           -0.3858636             -10.4999
        42        0.0005           -0.3546311              -9.6500
        43        0.0000           -0.3050574              -8.3010
        44        0.0000           -0.2439009              -6.6369
        45                         -0.1587356              -4.3194
        46                         -0.1145921              -3.1182
        47                         -0.0849645              -2.3120
        48                         -0.0416235              -1.1326
       ...                                ...                  ...
        67                          1.0042019              27.3257
      -------------------------------------------------------------
                  HL-Gap            0.0633230 Eh            1.7231 eV

     #   Z          covCN         q      C6AA      α(0)
     1   6 C        3.699    -0.069    21.993     6.707
     2   7 N        2.742    -0.025    21.734     6.924
     3   6 C        2.765     0.125    25.237     8.227
     4   7 N        1.774    -0.274    27.933     7.826
     5   6 C        1.909     0.082    29.044     8.704
     6   6 C        2.892    -0.009    28.241     8.713
     7   6 C        2.758     0.262    22.588     7.783
     8   8 O        0.857    -0.299    19.767     5.961
     9   7 N        2.717    -0.041    22.030     6.971
    10   6 C        3.703    -0.063    21.873     6.687
    11   6 C        1.794     0.304    24.342     7.974
    12   8 O        0.856    -0.140    17.124     5.548
    13   7 N        1.821    -0.005    22.056     6.959
    14   6 C        3.685    -0.056    21.789     6.683
    15   1 H        0.924     0.099     1.795     2.095
    16   1 H        0.925     0.090     1.877     2.143
    17   1 H        0.924     0.074     2.040     2.234
    18   1 H        0.925     0.098     1.799     2.097
    19   1 H        0.925     0.128     1.551     1.947
    20   1 H        0.925     0.111     1.691     2.034
    21   1 H        0.925     0.099     1.794     2.094
    22   1 H        0.924     0.103     1.761     2.075
    23   1 H        0.924     0.129     1.546     1.944
    24   1 H        0.924     0.122     1.596     1.976
    25   1 H        0.860     0.156     1.358     1.826

Wiberg/Mayer (AO) data.
largest (>0.10) Wiberg bond orders for each atom

     #   Z sym  total        # sym  WBO       # sym  WBO       # sym  WBO
 ---------------------------------------------------------------------------
     1   6 C    3.933 --     2 N    0.990    17 H    0.974    16 H    0.970
                            15 H    0.955
     2   7 N    3.421 --     3 C    1.188     6 C    1.004     1 C    0.990
                             4 N    0.136
     3   6 C    3.950 --     4 N    1.776     2 N    1.188    18 H    0.928
     4   7 N    2.898 --     3 C    1.776    25 H    0.930     2 N    0.136
     5   6 C    3.879 --    13 N    2.221     6 C    1.381
     6   6 C    3.861 --     5 C    1.381     7 C    1.167     2 N    1.004
                            13 N    0.112
     7   6 C    3.864 --     8 O    1.780     6 C    1.167     9 N    0.766
     8   8 O    2.154 --     7 C    1.780
     9   7 N    3.575 --    11 C    1.555    10 C    0.918     7 C    0.766
                            12 O    0.217
    10   6 C    3.878 --    21 H    0.975    20 H    0.965    19 H    0.963
                             9 N    0.918
    11   6 C    3.702 --    12 O    2.024     9 N    1.555
    12   8 O    2.340 --    11 C    2.024     9 N    0.217
    13   7 N    3.531 --     5 C    2.221    14 C    1.042     6 C    0.112
    14   6 C    3.928 --    13 N    1.042    22 H    0.947    24 H    0.939
                            23 H    0.932
    15   1 H    0.974 --     1 C    0.955
    16   1 H    0.987 --     1 C    0.970
    17   1 H    0.988 --     1 C    0.974
    18   1 H    0.978 --     3 C    0.928
    19   1 H    0.982 --    10 C    0.963
    20   1 H    0.987 --    10 C    0.965
    21   1 H    0.989 --    10 C    0.975
    22   1 H    0.979 --    14 C    0.947
    23   1 H    0.978 --    14 C    0.932
    24   1 H    0.978 --    14 C    0.939
    25   1 H    0.967 --     4 N    0.930
 ---------------------------------------------------------------------------

molecular dipole:
                 x           y           z       tot (Debye)
 q only:       -1.177      -0.563      -0.345
   full:       -1.483      -0.422      -0.461       4.090

           -------------------------------------------------
          | TOTAL ENERGY              -42.078490829506 Eh   |
          | GRADIENT NORM               0.007024051545 Eh/α |
          | HOMO-LUMO GAP               1.723106119702 eV   |
           -------------------------------------------------

 * finished run on 2024/06/05 at 19:57:54.252
