   * xtb version 6.6.1 (8d0f1dd) compiled by 'conda@1efc2f54142f' on 2023-08-01
          program call               : xtb struc.xyz --opt loose --input .xc1 --gfn2

   ID    Z sym.   atoms
    1    6 C      1, 3, 5-7, 10, 11, 14
    2    7 N      2, 4, 9, 13
    3    8 O      8, 12
    4    1 H      15-25
constraining bond 6 13 to    4.9200000 Å, actual value:    2.4008916 Å

          :  Hamiltonian                  GFN2-xTB          :
 * total energy  :   -19.5862163 Eh     change       -0.6650680E-10 Eh
 * total energy  :   -29.1782123 Eh     change       -0.9591996E+01 Eh
 * total energy  :   -35.3857617 Eh     change       -0.6207549E+01 Eh
 * total energy  :   -39.1047408 Eh     change       -0.3718979E+01 Eh
 * total energy  :   -40.9645070 Eh     change       -0.1859766E+01 Eh
 * total energy  :   -41.3361617 Eh     change       -0.3716547E+00 Eh
 * total energy  :   -41.3723076 Eh     change       -0.3614595E-01 Eh
 * total energy  :   -41.4447255 Eh     change       -0.7241789E-01 Eh
 * total energy  :   -41.4926569 Eh     change       -0.4793139E-01 Eh
 * total energy  :   -41.5226872 Eh     change       -0.3003029E-01 Eh
 * total energy  :   -42.0846942 Eh     change       -0.4319937E-03 Eh
 * total energy  :   -42.0851032 Eh     change       -0.4090255E-03 Eh
 * total energy  :   -42.0852894 Eh     change       -0.1862184E-03 Eh
 * total energy  :   -42.0854019 Eh     change       -0.1124969E-03 Eh
 * total energy  :   -42.0854788 Eh     change       -0.7690940E-04 Eh
 * total energy  :   -42.0855686 Eh     change       -0.8974998E-04 Eh
 * total energy  :   -42.0856329 Eh     change       -0.6431003E-04 Eh
 * total energy  :   -42.0856843 Eh     change       -0.5137628E-04 Eh
 * total energy  :   -42.0857268 Eh     change       -0.4250663E-04 Eh
   *** GEOMETRY OPTIMIZATION CONVERGED AFTER 128 ITERATIONS ***

 final structure:
================
25
 xtb: 6.6.1 (8d0f1dd)
C            3.44351779898744        0.91025394635920        0.44452081476769
N            2.04258938479405        0.50559657492999        0.27388148067461
C            1.92235627604131       -0.68528163269372       -0.37428326120268
N            0.96855214156252       -1.60636569236853       -0.54271466494420
C           -0.31471034720679       -1.79796572949171       -0.10899883562343
C            1.12557014756949        1.48767417987823        0.67157574027909
C           -0.36826664276713        1.19084744922510        0.38338553010901
O            1.45163108922785        2.53190625551530        1.15021773979621
N           -0.91216221551164        2.02157610531422       -0.35996323599828
C           -2.26742614101318        2.14628288738508       -0.73552294591931
C           -1.26221522419935       -1.05845695483912        0.55191761463926
O           -1.18492209211963        0.16958044137097        1.05106392958388
N           -2.28496255419323       -2.03709984777986        0.43096806059404
C           -1.30445162263180       -2.94253841350887       -0.20589810121373
H            3.99514938390930        0.14238841510640        0.98367095408674
H            3.91272332166887        1.09435209023646       -0.52189466629520
H            3.46334245837182        1.83319825486502        1.02022377410812
H            2.86466019431175       -0.99412599186486       -0.80924757790279
H           -2.60711289564091        3.10933730019610       -0.34909575931247
H           -2.30888767813262        2.20746755967793       -1.82345499469083
H           -2.92048037935978        1.35032431722221       -0.36648257175797
H           -1.05861148853446       -3.82494325081137        0.38490447691853
H           -1.61939913595445       -3.23273145970946       -1.20843062107155
H           -2.91173847662214       -2.30073720860282        1.17681509373020
H            1.29568621154816       -2.40230105401278       -1.08598635544984

          :  Hamiltonian                  GFN2-xTB          :
         :: total energy             -42.085726776041 Eh    ::
         :: gradient norm              0.002611243144 Eh/a0 ::
         :: HOMO-LUMO gap              1.982647764055 eV    ::
         :: SCC energy               -42.585240012850 Eh    ::
         :: -> dispersion             -0.021262867232 Eh    ::
         :: repulsion energy           0.499007138597 Eh    ::

    * Orbital Energies and Occupations

         #    Occupation            Energy/Eh            Energy/eV
      -------------------------------------------------------------
         1        2.0000           -0.8903315             -24.2272
       ...           ...                  ...                  ...
        25        2.0000           -0.6607297             -17.9794
        26        2.0000           -0.6574881             -17.8912
        27        1.9999           -0.6484224             -17.6445
        28        1.9999           -0.6395295             -17.4025
        29        1.9998           -0.6287402             -17.1089
        30        1.9997           -0.6240532             -16.9814
        31        1.9995           -0.6157639             -16.7558
        32        1.9984           -0.5974302             -16.2569
        33        1.9960           -0.5829401             -15.8626
        34        1.9951           -0.5798542             -15.7786
        35        1.9877           -0.5651931             -15.3797
        36        1.9268           -0.5365112             -14.5992
        37        1.8547           -0.5250534             -14.2874 (HOMO)
        38        0.2271           -0.4521924             -12.3048 (LUMO)
        39        0.0141           -0.4063500             -11.0573
        40        0.0014           -0.3695167             -10.0551
        41        0.0002           -0.3400426              -9.2530
        42        0.0000           -0.2365320              -6.4364
        43                         -0.2062050              -5.6111
        44                         -0.1824252              -4.9640
        45                         -0.1625654              -4.4236
        46                         -0.1334134              -3.6304
        47                         -0.0868281              -2.3627
        48                         -0.0754966              -2.0544
       ...                                ...                  ...
        67                          0.5534864              15.0611
      -------------------------------------------------------------
                  HL-Gap            0.0728610 Eh            1.9826 eV

     #   Z          covCN         q      C6AA      α(0)
     1   6 C        3.728    -0.086    22.239     6.733
     2   7 N        2.728    -0.015    21.552     6.895
     3   6 C        2.781     0.058    26.683     8.461
     4   7 N        2.680    -0.043    22.071     6.977
     5   6 C        3.119    -0.020    28.329     8.717
     6   6 C        2.770     0.267    22.490     7.767
     7   6 C        2.754     0.179    24.148     8.047
     8   8 O        0.858    -0.286    19.523     5.924
     9   7 N        1.833    -0.131    24.607     7.351
    10   6 C        3.698    -0.044    21.535     6.637
    11   6 C        3.181     0.214    23.126     7.850
    12   8 O        1.697    -0.247    18.098     5.744
    13   7 N        2.924    -0.172    24.717     7.384
    14   6 C        4.156    -0.009    20.660     6.456
    15   1 H        0.925     0.091     1.873     2.140
    16   1 H        0.925     0.092     1.857     2.131
    17   1 H        0.925     0.130     1.538     1.939
    18   1 H        0.925     0.106     1.729     2.056
    19   1 H        0.924     0.118     1.631     1.997
    20   1 H        0.924     0.101     1.779     2.086
    21   1 H        0.924     0.065     2.137     2.286
    22   1 H        0.925     0.090     1.882     2.145
    23   1 H        0.925     0.101     1.778     2.085
    24   1 H        0.860     0.207     1.072     1.622
    25   1 H        0.860     0.235     0.945     1.523

Wiberg/Mayer (AO) data.
largest (>0.10) Wiberg bond orders for each atom

     #   Z sym  total        # sym  WBO       # sym  WBO       # sym  WBO
 ---------------------------------------------------------------------------
     1   6 C    3.915 --    15 H    0.974    16 H    0.968    17 H    0.962
                             2 N    0.959
     2   7 N    3.583 --     3 C    1.249     6 C    1.092     1 C    0.959
                             8 O    0.132
     3   6 C    3.784 --     4 N    1.347     2 N    1.249    18 H    0.947
     4   7 N    3.568 --     3 C    1.347     5 C    1.146    25 H    0.912
     5   6 C    3.831 --    11 C    1.408     4 N    1.146    14 C    0.998
     6   6 C    3.903 --     8 O    1.792     2 N    1.092     7 C    0.910
     7   6 C    3.894 --     9 N    1.907     6 C    0.910    12 O    0.857
     8   8 O    2.095 --     6 C    1.792     2 N    0.132
     9   7 N    3.150 --     7 C    1.907    10 C    1.049
    10   6 C    3.945 --     9 N    1.049    21 H    0.962    20 H    0.945
                            19 H    0.928
    11   6 C    3.868 --     5 C    1.408    13 N    1.146    12 O    1.131
    12   8 O    2.276 --    11 C    1.131     7 C    0.857
    13   7 N    3.252 --    11 C    1.146    14 C    0.986    24 H    0.927
    14   6 C    3.954 --     5 C    0.998    13 N    0.986    22 H    0.958
                            23 H    0.955
    15   1 H    0.988 --     1 C    0.974
    16   1 H    0.987 --     1 C    0.968
    17   1 H    0.982 --     1 C    0.962
    18   1 H    0.988 --     3 C    0.947
    19   1 H    0.980 --    10 C    0.928
    20   1 H    0.985 --    10 C    0.945
    21   1 H    0.978 --    10 C    0.962
    22   1 H    0.990 --    14 C    0.958
    23   1 H    0.987 --    14 C    0.955
    24   1 H    0.952 --    13 N    0.927
    25   1 H    0.944 --     4 N    0.912
 ---------------------------------------------------------------------------

molecular dipole:
                 x           y           z       tot (Debye)
 q only:        0.771      -2.206      -0.971
   full:        0.604      -2.822      -0.797       7.609

           -------------------------------------------------
          | TOTAL ENERGY              -42.085726776041 Eh   |
          | GRADIENT NORM               0.002611243144 Eh/α |
          | HOMO-LUMO GAP               1.982647764055 eV   |
           -------------------------------------------------

 * finished run on 2024/06/05 at 19:59:16.777
