   * xtb version 6.6.1 (8d0f1dd) compiled by 'conda@1efc2f54142f' on 2023-08-01
          program call               : xtb xtbopt.xyz --opt crude --input .xc2 --gfn2

   ID    Z sym.   atoms
    1    6 C      1, 3, 5-7, 10, 11, 14
    2    7 N      2, 4, 9, 13
    3    8 O      8, 12
    4    1 H      15-25
########################################################################
[WARNING] Please study the warnings concerning your input carefully
-1- readin_getIntValue: could not parse ''
########################################################################

          :  Hamiltonian                  GFN2-xTB          :
 * total energy  :   -42.0860446 Eh     change       -0.8526513E-12 Eh
 * total energy  :   -42.0933502 Eh     change       -0.7305637E-02 Eh
 * total energy  :   -42.0970799 Eh     change       -0.3729709E-02 Eh
 * total energy  :   -42.0979042 Eh     change       -0.8242390E-03 Eh
 * total energy  :   -42.0984557 Eh     change       -0.5514954E-03 Eh
 * total energy  :   -42.0988916 Eh     change       -0.4359306E-03 Eh
 * total energy  :   -42.0993967 Eh     change       -0.5051133E-03 Eh
 * total energy  :   -42.0999737 Eh     change       -0.5770000E-03 Eh
 * total energy  :   -42.1006064 Eh     change       -0.6326781E-03 Eh
 * total energy  :   -42.1011894 Eh     change       -0.5830223E-03 Eh
 * total energy  :   -42.1010305 Eh     change        0.1589270E-03 Eh
 * total energy  :   -42.1018465 Eh     change       -0.8159967E-03 Eh
 * total energy  :   -42.1020919 Eh     change       -0.2453896E-03 Eh
   *** GEOMETRY OPTIMIZATION CONVERGED AFTER 13 ITERATIONS ***

 final structure:
================
25
 xtb: 6.6.1 (8d0f1dd)
C            3.33013447384750        0.87773789872866        0.48740651045540
N            1.95451558630650        0.46734260564530        0.21479179723725
C            1.82769462621042       -0.53225278474758       -0.69423722389916
N            0.88625123823398       -1.46329522495875       -0.78799493581036
C           -0.25968040103630       -1.69522170931332       -0.08277961873556
C            0.96403517640368        1.14005744104445        0.92344308794602
C           -0.44402323669642        1.12311093091223        0.38204147209757
O            1.21947380538687        1.82734238940209        1.87695592530731
N           -0.78094325462313        1.93935771228603       -0.48833695737797
C           -2.09985974179595        2.17311709788369       -0.96823043488392
C           -1.19351660200145       -0.99834398597547        0.66701977969588
O           -1.35183740404526        0.24877996574525        1.05521124743009
N           -2.05892646352187       -2.03582721506893        0.77130890921924
C           -1.15793293710126       -2.91611239944095        0.02014439470635
H            3.89322669145006        0.05737240808369        0.93077247997041
H            3.81525406397250        1.19999360130286       -0.43328652016389
H            3.30243513137201        1.70921464750268        1.18927791425144
H            2.68072055412284       -0.66625743851136       -1.34656551830653
H           -2.37403509918971        3.18376132192731       -0.66190204573006
H           -2.06061231733785        2.16251856447011       -2.05885030161966
H           -2.84590875822206        1.46457423783066       -0.59709415819038
H           -0.76474308069457       -3.75233928716842        0.59993255544943
H           -1.60324355494757       -3.27322948946002       -0.90866674563966
H           -2.79469856513690       -2.24035885698014        1.42314654707231
H            1.07665158314919       -2.18280388954074       -1.48233654257667

          :  Hamiltonian                  GFN2-xTB          :
         :: total energy             -42.102091862875 Eh    ::
         :: gradient norm              0.007135198327 Eh/a0 ::
         :: HOMO-LUMO gap              2.045834313817 eV    ::
         :: SCC energy               -42.616035223291 Eh    ::
         :: -> dispersion             -0.021865624916 Eh    ::
         :: repulsion energy           0.513700396507 Eh    ::

    * Orbital Energies and Occupations

         #    Occupation            Energy/Eh            Energy/eV
      -------------------------------------------------------------
         1        2.0000           -0.9051992             -24.6317
       ...           ...                  ...                  ...
        25        2.0000           -0.6625848             -18.0299
        26        2.0000           -0.6545748             -17.8119
        27        2.0000           -0.6509774             -17.7140
        28        1.9999           -0.6458082             -17.5733
        29        1.9999           -0.6339749             -17.2513
        30        1.9998           -0.6242149             -16.9858
        31        1.9996           -0.6159769             -16.7616
        32        1.9985           -0.5947257             -16.1833
        33        1.9976           -0.5874387             -15.9850
        34        1.9965           -0.5817809             -15.8311
        35        1.9886           -0.5629361             -15.3183
        36        1.9437           -0.5372668             -14.6198
        37        1.8580           -0.5219082             -14.2018 (HOMO)
        38        0.2037           -0.4467252             -12.1560 (LUMO)
        39        0.0110           -0.3988450             -10.8531
        40        0.0031           -0.3789784             -10.3125
        41        0.0003           -0.3433674              -9.3435
        42                         -0.2072319              -5.6391
        43                         -0.1886286              -5.1328
        44                         -0.1650758              -4.4919
        45                         -0.1462454              -3.9795
        46                         -0.1097905              -2.9876
        47                         -0.0741141              -2.0167
        48                         -0.0646117              -1.7582
       ...                                ...                  ...
        67                          0.5850039              15.9188
      -------------------------------------------------------------
                  HL-Gap            0.0751830 Eh            2.0458 eV

     #   Z          covCN         q      C6AA      α(0)
     1   6 C        3.716    -0.082    22.189     6.729
     2   7 N        2.731    -0.016    21.567     6.897
     3   6 C        2.780     0.055    26.754     8.472
     4   7 N        2.682    -0.038    21.977     6.963
     5   6 C        3.185    -0.036    28.429     8.701
     6   6 C        2.767     0.259    22.633     7.791
     7   6 C        2.835     0.194    23.875     8.007
     8   8 O        0.859    -0.304    19.860     5.975
     9   7 N        1.827    -0.160    25.256     7.447
    10   6 C        3.703    -0.042    21.476     6.626
    11   6 C        3.261     0.224    22.313     7.630
    12   8 O        1.703    -0.224    17.722     5.684
    13   7 N        2.990    -0.143    24.096     7.291
    14   6 C        4.171    -0.014    20.730     6.467
    15   1 H        0.925     0.092     1.864     2.135
    16   1 H        0.925     0.093     1.850     2.127
    17   1 H        0.925     0.126     1.567     1.958
    18   1 H        0.925     0.108     1.712     2.046
    19   1 H        0.924     0.112     1.684     2.029
    20   1 H        0.924     0.095     1.832     2.117
    21   1 H        0.924     0.059     2.207     2.323
    22   1 H        0.924     0.097     1.817     2.108
    23   1 H        0.925     0.100     1.785     2.089
    24   1 H        0.860     0.213     1.042     1.599
    25   1 H        0.860     0.234     0.949     1.526

Wiberg/Mayer (AO) data.
largest (>0.10) Wiberg bond orders for each atom

     #   Z sym  total        # sym  WBO       # sym  WBO       # sym  WBO
 ---------------------------------------------------------------------------
     1   6 C    3.915 --    15 H    0.972    16 H    0.967    17 H    0.964
                             2 N    0.959
     2   7 N    3.580 --     3 C    1.234     6 C    1.107     1 C    0.959
                             8 O    0.137
     3   6 C    3.788 --     4 N    1.359     2 N    1.234    18 H    0.947
     4   7 N    3.572 --     3 C    1.359     5 C    1.145    25 H    0.910
     5   6 C    3.795 --    11 C    1.347     4 N    1.145    14 C    0.992
     6   6 C    3.910 --     8 O    1.768     2 N    1.107     7 C    0.923
     7   6 C    3.909 --     9 N    1.902     6 C    0.923    12 O    0.886
     8   8 O    2.077 --     6 C    1.768     2 N    0.137
     9   7 N    3.130 --     7 C    1.902    10 C    1.035
    10   6 C    3.949 --     9 N    1.035    21 H    0.968    20 H    0.952
                            19 H    0.936
    11   6 C    3.879 --     5 C    1.347    13 N    1.229    12 O    1.129
    12   8 O    2.313 --    11 C    1.129     7 C    0.886
    13   7 N    3.362 --    11 C    1.229    14 C    0.984    24 H    0.926
    14   6 C    3.948 --     5 C    0.992    13 N    0.984    22 H    0.957
                            23 H    0.955
    15   1 H    0.988 --     1 C    0.972
    16   1 H    0.988 --     1 C    0.967
    17   1 H    0.983 --     1 C    0.964
    18   1 H    0.987 --     3 C    0.947
    19   1 H    0.984 --    10 C    0.936
    20   1 H    0.988 --    10 C    0.952
    21   1 H    0.985 --    10 C    0.968
    22   1 H    0.989 --    14 C    0.957
    23   1 H    0.988 --    14 C    0.955
    24   1 H    0.952 --    13 N    0.926
    25   1 H    0.944 --     4 N    0.910
 ---------------------------------------------------------------------------

molecular dipole:
                 x           y           z       tot (Debye)
 q only:        0.633      -2.180      -1.358
   full:        0.337      -2.634      -1.286       7.499

           -------------------------------------------------
          | TOTAL ENERGY              -42.102091862875 Eh   |
          | GRADIENT NORM               0.007135198327 Eh/α |
          | HOMO-LUMO GAP               2.045834313817 eV   |
           -------------------------------------------------

 * finished run on 2024/06/05 at 19:59:17.279
