   * xtb version 6.6.1 (8d0f1dd) compiled by 'conda@1efc2f54142f' on 2023-08-01
          program call               : xtb struc.xyz --opt loose --input .xc1 --gfn2

   ID    Z sym.   atoms
    1    7 N      1, 17
    2    6 C      2-6, 8, 9, 11-16, 18-23, 25, 26, 28-33
    3    8 O      7, 10, 24, 27
    4    1 H      34-72
constraining bond 32 70 to    5.1400000 Å, actual value:    3.4593291 Å

          :  Hamiltonian                  GFN2-xTB          :
 * total energy  :   -98.8997798 Eh     change       -0.4035485E-08 Eh
 * total energy  :   -99.0898232 Eh     change       -0.1900434E+00 Eh
 * total energy  :   -99.1811415 Eh     change       -0.9131829E-01 Eh
 * total energy  :   -99.2181737 Eh     change       -0.3703222E-01 Eh
 * total energy  :   -99.2305191 Eh     change       -0.1234535E-01 Eh
 * total energy  :   -99.2351606 Eh     change       -0.4641539E-02 Eh
 * total energy  :   -99.2374089 Eh     change       -0.2248316E-02 Eh
 * total energy  :   -99.2382800 Eh     change       -0.8710558E-03 Eh
 * total energy  :   -99.2387410 Eh     change       -0.4610655E-03 Eh
 * total energy  :   -99.2390258 Eh     change       -0.2847891E-03 Eh
 * total energy  :   -99.2392558 Eh     change       -0.2299303E-03 Eh
 * total energy  :   -99.2394512 Eh     change       -0.1954583E-03 Eh
 * total energy  :   -99.2396057 Eh     change       -0.1545194E-03 Eh
 * total energy  :   -99.2397439 Eh     change       -0.1381618E-03 Eh
 * total energy  :   -99.2398535 Eh     change       -0.1096035E-03 Eh
 * total energy  :   -99.2399249 Eh     change       -0.7140839E-04 Eh
 * total energy  :   -99.2399716 Eh     change       -0.4664232E-04 Eh
   *** GEOMETRY OPTIMIZATION CONVERGED AFTER 17 ITERATIONS ***

 final structure:
================
72
 xtb: 6.6.1 (8d0f1dd)
N           -1.93358526900390        2.81365421245175        2.26847381645004
C           -1.85080513523646        2.13509341167618        1.22348784244080
C           -3.00184495828365        1.92245906556467        0.27706086925562
C           -3.47398887657371        0.47589168822876        0.34876109137208
C           -4.43768655894345        0.02013057134227       -0.55487966910038
C           -4.90506713844433       -1.28289087304532       -0.52041258384619
O           -5.83860121848584       -1.80222517382662       -1.34391233255465
C           -6.46592507429269       -0.97257028275354       -2.29309927213275
C           -4.38911641029559       -2.18581839817467        0.44873488605613
O           -4.90014948819035       -3.43291215198088        0.40909603827161
C           -4.51226558338796       -4.36194285192944        1.39412129938321
C           -3.43017775936057       -1.72986926809872        1.33826979482444
C           -2.97783310487865       -0.41626248060595        1.28634560379144
C           -2.45421301095271        2.19365174376861       -1.15158111959948
C           -1.52350634926074        1.09837480533621       -1.70320398077960
C           -0.18253576121234        1.10129111568816       -1.07891240031367
N            0.48193764529315        0.02867729020941       -0.66938788315554
C            1.86026537536750        0.13596166632574       -0.25244757891649
C            2.82875424633582       -0.32607395011429       -1.35790997398974
C            4.24987566560822       -0.12534832556586       -0.91120443320906
C            4.89196447997707        1.08315951033036       -1.12667133940607
C            6.19445254699992        1.28217580192868       -0.69577547502387
C            6.88077169553900        0.27407284364472       -0.03424570973028
O            8.14356192584159        0.35284001819490        0.42419202060660
C            8.87735524750981        1.53819695894972        0.21926066023692
C            6.22825756233394       -0.96880101719198        0.19598582909303
O            6.96858898013847       -1.89215768755337        0.84103124659156
C            6.42343395248666       -3.16643304218604        1.08572861209108
C            4.92504743516035       -1.14347201165020       -0.24207551631093
C           -0.10497957718757       -1.28961122931513       -0.69373479019406
C           -4.17102950744355        2.89237882506162        0.59778210170810
C           -4.89206031037917        2.21146148443275        2.12653394039031
C           -3.68063282972858        4.44793335463388        0.19821721342469
H           -4.84112050529108        0.70363626853230       -1.28344773591239
H           -6.98673364106969       -0.13716625518207       -1.81558279620198
H           -7.19194506464852       -1.60683261208080       -2.79817009483657
H           -5.75077570390795       -0.58807130466733       -3.02736702253176
H           -4.74968948982332       -4.00121925905632        2.39929030442407
H           -5.08675271770858       -5.26305817968904        1.18908678635271
H           -3.44387208904431       -4.59218720175974        1.33065401510035
H           -3.03272396589961       -2.38845893898206        2.09344292452547
H           -2.25067844652588       -0.09277386665729        2.01513462985191
H           -3.29962398910681        2.29617313087580       -1.83025153525818
H           -1.92477419726526        3.14530674671023       -1.14694209010957
H           -2.00578957703560        0.12577821698540       -1.62354327619525
H           -1.38571507376896        1.31374647308998       -2.77103228019800
H           -0.91841425645807        1.65701206992133        0.86867864136742
H            0.35478788571970        2.03806353116834       -1.06404043490588
H            2.01324958195929       -0.47193905582169        0.64333469437328
H            2.08194906244574        1.17527279969503       -0.00135397417719
H            2.63604496120975        0.25963256440793       -2.25840821775846
H            2.65039124972323       -1.37777384134312       -1.58458131071734
H            4.38314492593519        1.88012251386912       -1.64743428579348
H            6.67050661481603        2.22994399744528       -0.88616087585259
H            8.40789447011804        2.39149623585493        0.71813828572126
H            8.99552283225002        1.75670656256121       -0.84624414055504
H            9.85513162503531        1.35569778787748        0.66080915503714
H            7.20823168491257       -3.72759252507023        1.58920847897143
H            5.54571821088181       -3.10946567067615        1.73761653345969
H            6.15634000352030       -3.67469593108073        0.15399914066966
H            4.42412236033421       -2.08494153239621       -0.07904377272445
H           -0.25408008762018       -1.63706799851587       -1.71825727806979
H           -1.06991427577539       -1.28565310366876       -0.18060521222410
H            0.55559834811054       -1.98579008251471       -0.18355907074504
H           -4.98724543560146        2.68649294151582       -0.09702025255671
H           -4.10611431439353        2.18391456895822        2.86233092377447
H           -5.24140230426914        1.23851302833832        1.82565452039910
H           -5.69765929061997        2.86786574800664        2.41959373026969
H           -2.89020214515888        4.73046396343300        0.88173101340401
H           -3.10824462436053        5.12725371447152       -1.10632321125118
H           -4.53896314538463        5.09152950212492        0.34404309569305
H           -1.09794671628506        2.92318889204271        2.83425803005513

          :  Hamiltonian                  GFN2-xTB          :
         :: total energy             -99.239971555197 Eh    ::
         :: gradient norm              0.002997150517 Eh/a0 ::
         :: HOMO-LUMO gap              1.677341405029 eV    ::
         :: SCC energy              -100.620253831463 Eh    ::
         :: -> dispersion             -0.075772395507 Eh    ::
         :: repulsion energy           1.345173295964 Eh    ::

    * Orbital Energies and Occupations

         #    Occupation            Energy/Eh            Energy/eV
      -------------------------------------------------------------
         1        2.0000           -0.8091053             -22.0169
       ...           ...                  ...                  ...
        78        1.9987           -0.5328133             -14.4986
        79        1.9983           -0.5284944             -14.3811
        80        1.9980           -0.5257295             -14.3058
        81        1.9975           -0.5221130             -14.2074
        82        1.9971           -0.5197401             -14.1428
        83        1.9968           -0.5182341             -14.1019
        84        1.9956           -0.5130669             -13.9613
        85        1.9844           -0.4930075             -13.4154
        86        1.9789           -0.4881819             -13.2841
        87        1.9716           -0.4834730             -13.1560
        88        1.9465           -0.4732250             -12.8771
        89        1.8790           -0.4597456             -12.5103
        90        1.8454           -0.4555704             -12.3967 (HOMO)
        91        0.3914           -0.3939293             -10.7194 (LUMO)
        92        0.0143           -0.3382496              -9.2042
        93        0.0039           -0.3176027              -8.6424
        94        0.0034           -0.3154998              -8.5852
        95        0.0028           -0.3120839              -8.4922
        96        0.0025           -0.3102846              -8.4433
        97        0.0024           -0.3097613              -8.4290
        98        0.0000           -0.2060342              -5.6065
        99        0.0000           -0.1914352              -5.2092
       100        0.0000           -0.1872180              -5.0945
       101                         -0.1358726              -3.6973
       ...                                ...                  ...
       171                          0.5769979              15.7009
      -------------------------------------------------------------
                  HL-Gap            0.0616412 Eh            1.6773 eV

     #   Z          covCN         q      C6AA      α(0)
     1   7 N        1.774    -0.269    27.808     7.809
     2   6 C        2.826     0.100    25.773     8.319
     3   6 C        3.906     0.009    20.368     6.415
     4   6 C        2.972     0.002    27.977     8.676
     5   6 C        2.920    -0.081    30.019     8.985
     6   6 C        2.861     0.129    25.164     8.222
     7   8 O        1.706    -0.230    17.814     5.699
     8   6 C        3.644     0.028    20.451     6.501
     9   6 C        2.864     0.128    25.193     8.227
    10   8 O        1.706    -0.229    17.800     5.696
    11   6 C        3.646     0.027    20.452     6.499
    12   6 C        2.913    -0.075    29.883     8.964
    13   6 C        2.921    -0.054    29.351     8.884
    14   6 C        3.812    -0.068    21.797     6.645
    15   6 C        3.802    -0.069    21.818     6.650
    16   6 C        2.844     0.008    27.827     8.645
    17   7 N        2.729     0.012    21.038     6.812
    18   6 C        3.756    -0.017    20.924     6.522
    19   6 C        3.808    -0.070    21.842     6.653
    20   6 C        2.969    -0.000    28.036     8.685
    21   6 C        2.922    -0.049    29.213     8.863
    22   6 C        2.914    -0.067    29.680     8.934
    23   6 C        2.865     0.133    25.080     8.209
    24   8 O        1.706    -0.222    17.682     5.677
    25   6 C        3.645     0.025    20.489     6.505
    26   6 C        2.863     0.133    25.089     8.210
    27   8 O        1.706    -0.225    17.728     5.685
    28   6 C        3.645     0.027    20.452     6.500
    29   6 C        2.919    -0.080    29.989     8.980
    30   6 C        3.700    -0.071    22.033     6.713
    31   6 C        3.652    -0.026    21.363     6.638
    32   6 C        3.589    -0.111    23.347     7.003
    33   6 C        2.909    -0.074    29.840     8.957
    34   1 H        0.926     0.052     2.295     2.369
    35   1 H        0.924     0.053     2.279     2.361
    36   1 H        0.925     0.081     1.965     2.192
    37   1 H        0.924     0.048     2.348     2.396
    38   1 H        0.924     0.055     2.264     2.353
    39   1 H        0.925     0.081     1.967     2.193
    40   1 H        0.924     0.048     2.349     2.397
    41   1 H        0.926     0.051     2.302     2.373
    42   1 H        0.926     0.037     2.495     2.470
    43   1 H        0.925     0.062     2.180     2.309
    44   1 H        0.925     0.059     2.214     2.327
    45   1 H        0.925     0.066     2.134     2.284
    46   1 H        0.923     0.081     1.969     2.195
    47   1 H        0.922     0.005     2.972     2.696
    48   1 H        0.926     0.070     2.082     2.257
    49   1 H        0.924     0.068     2.113     2.273
    50   1 H        0.924     0.067     2.114     2.274
    51   1 H        0.924     0.055     2.255     2.348
    52   1 H        0.924     0.056     2.250     2.346
    53   1 H        0.926     0.045     2.382     2.414
    54   1 H        0.926     0.059     2.216     2.328
    55   1 H        0.924     0.054     2.268     2.355
    56   1 H        0.924     0.056     2.248     2.344
    57   1 H        0.925     0.082     1.955     2.186
    58   1 H        0.925     0.082     1.960     2.189
    59   1 H        0.924     0.048     2.339     2.392
    60   1 H        0.924     0.052     2.290     2.367
    61   1 H        0.926     0.047     2.359     2.402
    62   1 H        0.924     0.077     2.016     2.220
    63   1 H        0.924     0.081     1.972     2.196
    64   1 H        0.925     0.080     1.981     2.201
    65   1 H        0.924     0.042     2.420     2.433
    66   1 H        0.926     0.072     2.066     2.248
    67   1 H        0.926     0.053     2.285     2.364
    68   1 H        0.926     0.060     2.196     2.317
    69   1 H        0.925     0.054     2.272     2.357
    70   1 H        0.121    -0.025     8.720     5.396
    71   1 H        0.925     0.056     2.248     2.344
    72   1 H        0.860     0.157     1.355     1.824

Wiberg/Mayer (AO) data.
largest (>0.10) Wiberg bond orders for each atom

     #   Z sym  total        # sym  WBO       # sym  WBO       # sym  WBO
 ---------------------------------------------------------------------------
     1   7 N    3.037 --     2 C    1.959    72 H    0.943
     2   6 C    3.930 --     1 N    1.959     3 C    0.993    47 H    0.902
     3   6 C    3.977 --     2 C    0.993    31 C    0.967     4 C    0.966
                            14 C    0.952
     4   6 C    3.950 --    13 C    1.416     5 C    1.365     3 C    0.966
     5   6 C    3.963 --     6 C    1.403     4 C    1.365    34 H    0.958
     6   6 C    3.908 --     5 C    1.403     9 C    1.221     7 O    1.100
     7   8 O    2.256 --     6 C    1.100     8 C    0.978
     8   6 C    3.932 --     7 O    0.978    36 H    0.977    37 H    0.974
                            35 H    0.974
     9   6 C    3.904 --    12 C    1.394     6 C    1.221    10 O    1.101
    10   8 O    2.253 --     9 C    1.101    11 C    0.978
    11   6 C    3.932 --    10 O    0.978    39 H    0.977    40 H    0.974
                            38 H    0.974
    12   6 C    3.963 --    13 C    1.400     9 C    1.394    41 H    0.964
    13   6 C    3.956 --     4 C    1.416    12 C    1.400    42 H    0.963
    14   6 C    3.969 --    15 C    0.980    44 H    0.969    43 H    0.969
                             3 C    0.952
    15   6 C    3.987 --    16 C    1.061    14 C    0.980    45 H    0.961
                            46 H    0.927
    16   6 C    3.596 --    17 N    1.405    15 C    1.061    48 H    0.957
    17   7 N    3.482 --    16 C    1.405    30 C    0.998    18 C    0.988
    18   6 C    3.955 --    17 N    0.988    50 H    0.968    19 C    0.967
                            49 H    0.964
    19   6 C    3.977 --    20 C    1.008    52 H    0.972    51 H    0.972
                            18 C    0.967
    20   6 C    3.945 --    21 C    1.410    29 C    1.380    19 C    1.008
    21   6 C    3.950 --    22 C    1.417    20 C    1.410    53 H    0.968
    22   6 C    3.960 --    21 C    1.417    23 C    1.384    54 H    0.963
    23   6 C    3.896 --    22 C    1.384    26 C    1.220    24 O    1.110
    24   8 O    2.255 --    23 C    1.110    25 C    0.976
    25   6 C    3.928 --    57 H    0.977    24 O    0.976    55 H    0.973
                            56 H    0.973
    26   6 C    3.899 --    29 C    1.395    23 C    1.220    27 O    1.104
    27   8 O    2.255 --    26 C    1.104    28 C    0.979
    28   6 C    3.932 --    27 O    0.979    58 H    0.977    59 H    0.973
                            60 H    0.973
    29   6 C    3.959 --    26 C    1.395    20 C    1.380    61 H    0.963
    30   6 C    3.957 --    17 N    0.998    64 H    0.978    62 H    0.966
                            63 H    0.959
    31   6 C    3.938 --    33 C    0.989    65 H    0.973     3 C    0.967
                            32 C    0.943
    32   6 C    3.965 --    68 H    0.991    66 H    0.985    67 H    0.984
                            31 C    0.943
    33   6 C    3.943 --    31 C    0.989    71 H    0.987    69 H    0.986
                            70 H    0.944
    34   1 H    0.996 --     5 C    0.958
    35   1 H    0.994 --     8 C    0.974
    36   1 H    0.993 --     8 C    0.977
    37   1 H    0.994 --     8 C    0.974
    38   1 H    0.993 --    11 C    0.974
    39   1 H    0.993 --    11 C    0.977
    40   1 H    0.994 --    11 C    0.974
    41   1 H    0.996 --    12 C    0.964
    42   1 H    0.998 --    13 C    0.963
    43   1 H    0.995 --    14 C    0.969
    44   1 H    0.995 --    14 C    0.969
    45   1 H    0.995 --    15 C    0.961
    46   1 H    0.970 --    15 C    0.927
    47   1 H    0.988 --     2 C    0.902
    48   1 H    0.995 --    16 C    0.957
    49   1 H    0.991 --    18 C    0.964
    50   1 H    0.994 --    18 C    0.968
    51   1 H    0.996 --    19 C    0.972
    52   1 H    0.996 --    19 C    0.972
    53   1 H    0.997 --    21 C    0.968
    54   1 H    0.995 --    22 C    0.963
    55   1 H    0.992 --    25 C    0.973
    56   1 H    0.992 --    25 C    0.973
    57   1 H    0.992 --    25 C    0.977
    58   1 H    0.993 --    28 C    0.977
    59   1 H    0.993 --    28 C    0.973
    60   1 H    0.993 --    28 C    0.973
    61   1 H    0.997 --    29 C    0.963
    62   1 H    0.985 --    30 C    0.966
    63   1 H    0.987 --    30 C    0.959
    64   1 H    0.993 --    30 C    0.978
    65   1 H    0.993 --    31 C    0.973
    66   1 H    0.993 --    32 C    0.985
    67   1 H    0.996 --    32 C    0.984
    68   1 H    0.995 --    32 C    0.991
    69   1 H    0.994 --    33 C    0.986
    70   1 H    0.984 --    33 C    0.944
    71   1 H    0.994 --    33 C    0.987
    72   1 H    0.971 --     1 N    0.943
 ---------------------------------------------------------------------------

molecular dipole:
                 x           y           z       tot (Debye)
 q only:        0.520      -0.186      -0.623
   full:        0.835      -0.148      -0.822       3.002

           -------------------------------------------------
          | TOTAL ENERGY              -99.239971555197 Eh   |
          | GRADIENT NORM               0.002997150517 Eh/α |
          | HOMO-LUMO GAP               1.677341405029 eV   |
           -------------------------------------------------

 * finished run on 2024/04/06 at 11:14:51.546
