   * xtb version 6.6.1 (8d0f1dd) compiled by 'conda@1efc2f54142f' on 2023-08-01
          program call               : xtb xtbopt.xyz --opt crude --input .xc2 --gfn2

   ID    Z sym.   atoms
    1    7 N      1, 17
    2    6 C      2-6, 8, 9, 11-16, 18-23, 25, 26, 28-33
    3    8 O      7, 10, 24, 27
    4    1 H      34-72

          :  Hamiltonian                  GFN2-xTB          :
 * total energy  :   -99.2737882 Eh     change       -0.1250555E-11 Eh
 * total energy  :   -99.3406308 Eh     change       -0.6684261E-01 Eh
 * total energy  :   -99.3643351 Eh     change       -0.2370426E-01 Eh
 * total energy  :   -99.3901777 Eh     change       -0.2584264E-01 Eh
 * total energy  :   -99.4010685 Eh     change       -0.1089075E-01 Eh
 * total energy  :   -99.4041327 Eh     change       -0.3064270E-02 Eh
 * total energy  :   -99.4056680 Eh     change       -0.1535227E-02 Eh
 * total energy  :   -99.4054337 Eh     change        0.2342252E-03 Eh
 * total energy  :   -99.4062739 Eh     change       -0.8401908E-03 Eh
 * total energy  :   -99.4062598 Eh     change        0.1411749E-04 Eh
 * total energy  :   -99.4064689 Eh     change       -0.2090313E-03 Eh
   *** GEOMETRY OPTIMIZATION CONVERGED AFTER 11 ITERATIONS ***

 final structure:
================
72
 xtb: 6.6.1 (8d0f1dd)
N           -1.88329907492041        2.80483478376320        2.22439238588461
C           -1.83233024244912        2.12529735119643        1.17809382796287
C           -2.98414572272747        1.91512224348682        0.23415123005605
C           -3.46167667208244        0.47275652663111        0.32379288499298
C           -4.42118693144633        0.00913868551723       -0.57872405450088
C           -4.89703046156903       -1.28989502577446       -0.52721557930549
O           -5.83121873077852       -1.81034852838541       -1.34898231608942
C           -6.46018564591009       -0.97616607344898       -2.29328786672163
C           -4.38799713935924       -2.18304387075990        0.45440613607591
O           -4.89878931224503       -3.43001300435217        0.42240844709731
C           -4.50837386699385       -4.35741254815887        1.40785621713454
C           -3.43551364242451       -1.71746895042461        1.34623223264255
C           -2.98180899619964       -0.40500715642381        1.28298990211933
C           -2.43047933484143        2.19196852339365       -1.18835218453215
C           -1.49615175556259        1.09409555255654       -1.72979650513863
C           -0.16148534829423        1.09037376569617       -1.09086123872831
N            0.49603808490673        0.01344529415504       -0.67834455150275
C            1.87363169247347        0.11639261817391       -0.25891849650245
C            2.84200374429152       -0.33815433571521       -1.36738587156640
C            4.26176001853110       -0.13401246978264       -0.91941404604959
C            4.90103768850241        1.07633000770724       -1.13262311094446
C            6.20162613472546        1.27817392836681       -0.69768331490716
C            6.88849027402123        0.27160123572126       -0.03414262733386
O            8.15013706774959        0.35392181544965        0.42648971022786
C            8.88146419700264        1.54047493294871        0.21929348436324
C            6.23788308717694       -0.97246523645381        0.19535656255296
O            6.97618342971250       -1.89450795247140        0.84430296348435
C            6.42870350455781       -3.16805048891553        1.08838171648330
C            4.93666544041266       -1.15007469771023       -0.24737367110266
C           -0.09533738579370       -1.30265695978890       -0.70146259464668
C           -4.19171590129628        2.85520490141416        0.52598640318539
C           -4.83697764585552        2.51685124731471        1.87011151492520
C           -3.82412478427288        4.33286147143978        0.47302105240172
H           -4.81335158421682        0.68096850818752       -1.32377671258399
H           -6.97236788210146       -0.13867452353944       -1.80987589881860
H           -7.19321517985734       -1.60469489008716       -2.79499595870212
H           -5.74780385925848       -0.59417973462091       -3.03172542309139
H           -4.74560965159701       -3.99782512185588        2.41338032071212
H           -5.08148434961228       -5.25943005942273        1.20266529190740
H           -3.43956736615614       -4.58570073091349        1.34353191470371
H           -3.04376589905321       -2.36746923540427        2.11185324440715
H           -2.26257645486555       -0.07216599620610        2.01546308541361
H           -3.26869007341840        2.29143472204890       -1.87691341765793
H           -1.89567844607509        3.14249369066332       -1.18090162529170
H           -1.98503495820524        0.12467617821607       -1.64990714803739
H           -1.34680042356910        1.30539838314730       -2.79666610875788
H           -0.91073428007938        1.63425274395583        0.80931329212901
H            0.38682771579032        2.02121623633206       -1.08408427533304
H            2.02550208118690       -0.49804730359982        0.63253376131318
H            2.09639120197015        1.15354788523147        0.00034126313305
H            2.64650423472385        0.25053933543493       -2.26532930983784
H            2.66655970898838       -1.38950850990245       -1.59797067759621
H            4.39164827014318        1.87212307835210       -1.65460766768854
H            6.67571837967606        2.22730010958611       -0.88605723367476
H            8.41041968753073        2.39359464589654        0.71699184215633
H            8.99835682622532        1.75744175432422       -0.84668487091672
H            9.85989756060654        1.36087633021224        0.66047236955145
H            7.21112378837124       -3.73039790799540        1.59409171831485
H            5.54935493748425       -3.10918712064668        1.73795364051773
H            6.16300919330940       -3.67617227594421        0.15617428148505
H            4.43668983122800       -2.09221759582787       -0.08564701663891
H           -0.24882940662382       -1.64940583938167       -1.72556104027680
H           -1.05828524621246       -1.29723140060241       -0.18439486980430
H            0.56572412814409       -2.00074728258935       -0.19437071839122
H           -4.93171020893404        2.66646620206961       -0.26029801636280
H           -4.10979105456818        2.61376747867593        2.67313033247672
H           -5.23178893013360        1.50183661376396        1.87488868984306
H           -5.65589311361746        3.20462758320557        2.06495739115272
H           -3.06857691186225        4.56014425407604        1.22140490913937
H           -3.47680902463742        4.61380793582448       -0.51150560850715
H           -4.70896971826099        4.92046671549338        0.70611769619324
H           -1.03567369450455        2.90064707997656        2.77457475400245

          :  Hamiltonian                  GFN2-xTB          :
         :: total energy             -99.406468854751 Eh    ::
         :: gradient norm              0.007857987166 Eh/a0 ::
         :: HOMO-LUMO gap              1.672890059498 eV    ::
         :: SCC energy              -100.785716557440 Eh    ::
         :: -> dispersion             -0.075164127652 Eh    ::
         :: repulsion energy           1.378007093183 Eh    ::

    * Orbital Energies and Occupations

         #    Occupation            Energy/Eh            Energy/eV
      -------------------------------------------------------------
         1        2.0000           -0.8089107             -22.0116
       ...           ...                  ...                  ...
        78        1.9983           -0.5292370             -14.4013
        79        1.9983           -0.5288166             -14.3898
        80        1.9982           -0.5276767             -14.3588
        81        1.9975           -0.5230477             -14.2329
        82        1.9971           -0.5201964             -14.1553
        83        1.9960           -0.5152077             -14.0195
        84        1.9952           -0.5122546             -13.9392
        85        1.9944           -0.5098882             -13.8748
        86        1.9810           -0.4905246             -13.3479
        87        1.9787           -0.4886254             -13.2962
        88        1.9385           -0.4715477             -12.8315
        89        1.8732           -0.4595454             -12.5049
        90        1.8438           -0.4559970             -12.4083 (HOMO)
        91        0.3912           -0.3945195             -10.7354 (LUMO)
        92        0.0153           -0.3399120              -9.2495
        93        0.0035           -0.3166182              -8.6156
        94        0.0029           -0.3136551              -8.5350
        95        0.0027           -0.3124922              -8.5033
        96        0.0024           -0.3101932              -8.4408
        97        0.0000           -0.1908984              -5.1946
        98        0.0000           -0.1876334              -5.1058
        99                         -0.1363762              -3.7110
       100                         -0.0685870              -1.8663
       101                         -0.0643709              -1.7516
       ...                                ...                  ...
       171                          0.5765068              15.6875
      -------------------------------------------------------------
                  HL-Gap            0.0614776 Eh            1.6729 eV

     #   Z          covCN         q      C6AA      α(0)
     1   7 N        1.774    -0.268    27.768     7.803
     2   6 C        2.826     0.101    25.759     8.316
     3   6 C        3.908     0.006    20.414     6.422
     4   6 C        2.974     0.003    27.954     8.673
     5   6 C        2.921    -0.080    29.994     8.981
     6   6 C        2.862     0.130    25.155     8.221
     7   8 O        1.706    -0.229    17.805     5.697
     8   6 C        3.645     0.027    20.449     6.500
     9   6 C        2.864     0.129    25.181     8.225
    10   8 O        1.706    -0.228    17.789     5.695
    11   6 C        3.645     0.027    20.456     6.500
    12   6 C        2.914    -0.075    29.869     8.962
    13   6 C        2.921    -0.054    29.331     8.881
    14   6 C        3.812    -0.065    21.736     6.636
    15   6 C        3.802    -0.069    21.821     6.651
    16   6 C        2.844     0.008    27.841     8.647
    17   7 N        2.729     0.011    21.068     6.817
    18   6 C        3.756    -0.016    20.919     6.521
    19   6 C        3.808    -0.070    21.842     6.653
    20   6 C        2.969    -0.000    28.033     8.685
    21   6 C        2.922    -0.049    29.213     8.863
    22   6 C        2.914    -0.067    29.680     8.933
    23   6 C        2.865     0.134    25.079     8.209
    24   8 O        1.706    -0.222    17.678     5.677
    25   6 C        3.645     0.025    20.489     6.505
    26   6 C        2.863     0.133    25.087     8.210
    27   8 O        1.706    -0.224    17.724     5.684
    28   6 C        3.645     0.027    20.453     6.500
    29   6 C        2.919    -0.080    29.990     8.980
    30   6 C        3.699    -0.071    22.024     6.712
    31   6 C        3.853    -0.007    20.675     6.467
    32   6 C        3.755    -0.119    22.830     6.813
    33   6 C        3.755    -0.119    22.834     6.813
    34   1 H        0.926     0.052     2.291     2.367
    35   1 H        0.924     0.054     2.271     2.356
    36   1 H        0.925     0.081     1.965     2.192
    37   1 H        0.924     0.048     2.351     2.398
    38   1 H        0.924     0.055     2.258     2.350
    39   1 H        0.925     0.081     1.966     2.193
    40   1 H        0.924     0.048     2.348     2.396
    41   1 H        0.926     0.051     2.301     2.372
    42   1 H        0.926     0.037     2.483     2.464
    43   1 H        0.925     0.060     2.198     2.319
    44   1 H        0.924     0.053     2.278     2.360
    45   1 H        0.925     0.066     2.131     2.283
    46   1 H        0.924     0.080     1.980     2.201
    47   1 H        0.922     0.007     2.936     2.680
    48   1 H        0.926     0.070     2.089     2.260
    49   1 H        0.924     0.067     2.114     2.274
    50   1 H        0.924     0.067     2.117     2.275
    51   1 H        0.924     0.055     2.257     2.349
    52   1 H        0.924     0.056     2.250     2.346
    53   1 H        0.926     0.045     2.382     2.414
    54   1 H        0.926     0.059     2.215     2.327
    55   1 H        0.924     0.054     2.267     2.354
    56   1 H        0.924     0.056     2.247     2.344
    57   1 H        0.925     0.082     1.954     2.186
    58   1 H        0.925     0.082     1.959     2.189
    59   1 H        0.924     0.049     2.338     2.391
    60   1 H        0.924     0.053     2.289     2.366
    61   1 H        0.926     0.047     2.356     2.401
    62   1 H        0.924     0.076     2.018     2.222
    63   1 H        0.924     0.080     1.978     2.199
    64   1 H        0.925     0.080     1.982     2.201
    65   1 H        0.924     0.037     2.486     2.466
    66   1 H        0.925     0.068     2.104     2.268
    67   1 H        0.925     0.035     2.516     2.481
    68   1 H        0.925     0.052     2.296     2.370
    69   1 H        0.925     0.060     2.199     2.319
    70   1 H        0.926     0.036     2.498     2.472
    71   1 H        0.925     0.054     2.265     2.353
    72   1 H        0.860     0.157     1.353     1.822

Wiberg/Mayer (AO) data.
largest (>0.10) Wiberg bond orders for each atom

     #   Z sym  total        # sym  WBO       # sym  WBO       # sym  WBO
 ---------------------------------------------------------------------------
     1   7 N    3.043 --     2 C    1.956    72 H    0.942
     2   6 C    3.927 --     1 N    1.956     3 C    0.995    47 H    0.897
     3   6 C    3.976 --     2 C    0.995     4 C    0.968    14 C    0.958
                            31 C    0.942
     4   6 C    3.950 --    13 C    1.415     5 C    1.368     3 C    0.968
     5   6 C    3.962 --     6 C    1.402     4 C    1.368    34 H    0.957
     6   6 C    3.906 --     5 C    1.402     9 C    1.221     7 O    1.100
     7   8 O    2.255 --     6 C    1.100     8 C    0.978
     8   6 C    3.932 --     7 O    0.978    36 H    0.977    35 H    0.973
                            37 H    0.973
     9   6 C    3.902 --    12 C    1.393     6 C    1.221    10 O    1.102
    10   8 O    2.253 --     9 C    1.102    11 C    0.978
    11   6 C    3.931 --    10 O    0.978    39 H    0.977    40 H    0.974
                            38 H    0.973
    12   6 C    3.962 --    13 C    1.401     9 C    1.393    41 H    0.964
    13   6 C    3.955 --     4 C    1.415    12 C    1.401    42 H    0.963
    14   6 C    3.972 --    15 C    0.981    44 H    0.972    43 H    0.969
                             3 C    0.958
    15   6 C    3.987 --    16 C    1.060    14 C    0.981    45 H    0.962
                            46 H    0.928
    16   6 C    3.597 --    17 N    1.400    15 C    1.060    48 H    0.957
    17   7 N    3.480 --    16 C    1.400    30 C    0.998    18 C    0.988
    18   6 C    3.955 --    17 N    0.988    50 H    0.968    19 C    0.967
                            49 H    0.964
    19   6 C    3.976 --    20 C    1.008    52 H    0.972    51 H    0.972
                            18 C    0.967
    20   6 C    3.944 --    21 C    1.409    29 C    1.380    19 C    1.008
    21   6 C    3.950 --    22 C    1.417    20 C    1.409    53 H    0.968
    22   6 C    3.959 --    21 C    1.417    23 C    1.383    54 H    0.963
    23   6 C    3.895 --    22 C    1.383    26 C    1.219    24 O    1.111
    24   8 O    2.255 --    23 C    1.111    25 C    0.976
    25   6 C    3.928 --    57 H    0.977    24 O    0.976    55 H    0.973
                            56 H    0.973
    26   6 C    3.899 --    29 C    1.395    23 C    1.219    27 O    1.104
    27   8 O    2.255 --    26 C    1.104    28 C    0.978
    28   6 C    3.932 --    27 O    0.978    58 H    0.977    59 H    0.973
                            60 H    0.973
    29   6 C    3.959 --    26 C    1.395    20 C    1.380    61 H    0.962
    30   6 C    3.957 --    17 N    0.998    64 H    0.978    62 H    0.966
                            63 H    0.960
    31   6 C    3.972 --    33 C    1.010    32 C    1.008    65 H    0.960
                             3 C    0.942
    32   6 C    3.978 --    31 C    1.008    67 H    0.983    68 H    0.981
                            66 H    0.973
    33   6 C    3.983 --    31 C    1.010    70 H    0.983    71 H    0.980
                            69 H    0.977
    34   1 H    0.996 --     5 C    0.957
    35   1 H    0.993 --     8 C    0.973
    36   1 H    0.993 --     8 C    0.977
    37   1 H    0.994 --     8 C    0.973
    38   1 H    0.993 --    11 C    0.973
    39   1 H    0.993 --    11 C    0.977
    40   1 H    0.993 --    11 C    0.974
    41   1 H    0.996 --    12 C    0.964
    42   1 H    0.998 --    13 C    0.963
    43   1 H    0.995 --    14 C    0.969
    44   1 H    0.996 --    14 C    0.972
    45   1 H    0.995 --    15 C    0.962
    46   1 H    0.970 --    15 C    0.928
    47   1 H    0.987 --     2 C    0.897
    48   1 H    0.995 --    16 C    0.957
    49   1 H    0.991 --    18 C    0.964
    50   1 H    0.994 --    18 C    0.968
    51   1 H    0.996 --    19 C    0.972
    52   1 H    0.996 --    19 C    0.972
    53   1 H    0.997 --    21 C    0.968
    54   1 H    0.995 --    22 C    0.963
    55   1 H    0.992 --    25 C    0.973
    56   1 H    0.992 --    25 C    0.973
    57   1 H    0.992 --    25 C    0.977
    58   1 H    0.993 --    28 C    0.977
    59   1 H    0.993 --    28 C    0.973
    60   1 H    0.993 --    28 C    0.973
    61   1 H    0.997 --    29 C    0.962
    62   1 H    0.985 --    30 C    0.966
    63   1 H    0.987 --    30 C    0.960
    64   1 H    0.993 --    30 C    0.978
    65   1 H    0.992 --    31 C    0.960
    66   1 H    0.991 --    32 C    0.973
    67   1 H    0.997 --    32 C    0.983
    68   1 H    0.994 --    32 C    0.981
    69   1 H    0.993 --    33 C    0.977
    70   1 H    0.997 --    33 C    0.983
    71   1 H    0.994 --    33 C    0.980
    72   1 H    0.970 --     1 N    0.942
 ---------------------------------------------------------------------------

molecular dipole:
                 x           y           z       tot (Debye)
 q only:        0.677      -0.056      -0.817
   full:        0.973      -0.107      -0.990       3.538

           -------------------------------------------------
          | TOTAL ENERGY              -99.406468854751 Eh   |
          | GRADIENT NORM               0.007857987166 Eh/α |
          | HOMO-LUMO GAP               1.672890059498 eV   |
           -------------------------------------------------

 * finished run on 2024/04/06 at 11:14:53.598
