   * xtb version 6.6.1 (8d0f1dd) compiled by 'conda@1efc2f54142f' on 2023-08-01
          program call               : xtb struc.xyz --opt loose --input .xc1 --gfn2

   ID    Z sym.   atoms
    1    6 C      1, 3, 5-7, 10, 11, 14
    2    7 N      2, 4, 9, 13
    3    8 O      8, 12
    4    1 H      15-25
constraining bond 7 16 to    4.7133300 Å, actual value:    3.9875359 Å

          :  Hamiltonian                  GFN2-xTB          :
 * total energy  :   -43.1858608 Eh     change       -0.6633627E-10 Eh
 * total energy  :   -45.8920641 Eh     change       -0.2706203E+01 Eh
 * total energy  :   -50.3575472 Eh     change       -0.4465483E+01 Eh
 * total energy  :   -56.8538208 Eh     change       -0.6496274E+01 Eh
 * total energy  :   -65.3574337 Eh     change       -0.8503613E+01 Eh
 * total energy  :   -72.4725044 Eh     change       -0.7115071E+01 Eh
 * total energy  :   -71.4894376 Eh     change        0.9830668E+00 Eh
 * total energy  :   -72.6316564 Eh     change       -0.1142219E+01 Eh
 * total energy  :   -72.7304013 Eh     change       -0.9874496E-01 Eh
 * total energy  :   -72.3650116 Eh     change        0.3653898E+00 Eh
 * total energy  :   -73.2737793 Eh     change        0.2689916E-03 Eh
 * total energy  :   -73.2732340 Eh     change        0.5453558E-03 Eh
 * total energy  :   -73.2743592 Eh     change       -0.1125208E-02 Eh
 * total energy  :   -73.2744124 Eh     change       -0.5321756E-04 Eh
 * total energy  :   -73.2744401 Eh     change       -0.2773175E-04 Eh
 * total energy  :   -73.2745202 Eh     change       -0.8003899E-04 Eh
 * total energy  :   -73.2745468 Eh     change       -0.2663945E-04 Eh
 * total energy  :   -73.2745948 Eh     change       -0.4795359E-04 Eh
 * total energy  :   -73.2746119 Eh     change       -0.1711459E-04 Eh
   *** GEOMETRY OPTIMIZATION CONVERGED AFTER 52 ITERATIONS ***

 final structure:
================
25
 xtb: 6.6.1 (8d0f1dd)
C            3.31198034784115        0.99346745716854        0.22977183655428
N            2.41389128845498        0.01436655343329        0.16077971310805
C            2.61273967416415       -1.31142827771318        0.38768347157535
N            1.44430596962306       -1.96959435057369        0.25124304966228
C            0.46760311641001       -1.05988355800837       -0.07493143047188
C            1.07253753341204        0.17165081543301       -0.13259730195625
C            0.30654676808273        1.45165259198375       -0.59799359191695
O            0.72524944783501        2.53726811465354        0.00792469687946
N           -1.17312198522069        1.07064556827702       -0.13472508227282
C           -2.03722975791755        2.19581445770243        0.08339834906309
C           -1.74613930725779       -0.16255765952453       -0.17863331950707
O           -2.92948560486547       -0.35301138426014       -0.11273588441192
N           -0.85260492898679       -1.27685730689333       -0.22958647812586
C           -1.41578776065128       -2.60901661457629       -0.17173680685440
H            4.33021631110909        0.76364841577746        0.48079790390033
H            0.27975588647836        1.45706063419206       -0.98050075543756
H            2.97669381023541        2.00586555071120        0.07466449057758
H            3.55292797606940       -1.76080252909838        0.63694359718398
H           -1.40865502189822        3.06838537670532        0.25768164611021
H           -2.69564531460548        2.35939553485138       -0.77383716945923
H           -2.66897592374164        2.01054137184594        0.95328774876456
H           -1.25269642829632       -3.06442356638674        0.80694941023687
H           -0.98571662953113       -3.23369628609307       -0.95426983130268
H           -2.48922064503321       -2.51530916817214       -0.33360062104301
H            1.32126269239011       -2.96494319983483        0.37519397704354

          :  Hamiltonian                  GFN2-xTB          :
         :: total energy             -73.274611891504 Eh    ::
         :: gradient norm              0.001920491356 Eh/a0 ::
         :: HOMO-LUMO gap              0.081841798125 eV    ::
         :: SCC energy               -42.595277752171 Eh    ::
         :: -> dispersion             -0.022778487655 Eh    ::
         :: repulsion energy           2.794931801887 Eh    ::

    * Orbital Energies and Occupations

         #    Occupation            Energy/Eh            Energy/eV
      -------------------------------------------------------------
         1        2.0000           -0.9196675             -25.0254
       ...           ...                  ...                  ...
        25        2.0000           -0.6708859             -18.2557
        26        2.0000           -0.6615557             -18.0018
        27        2.0000           -0.6579524             -17.9038
        28        2.0000           -0.6469002             -17.6031
        29        2.0000           -0.6313970             -17.1812
        30        2.0000           -0.6245044             -16.9936
        31        2.0000           -0.6210485             -16.8996
        32        1.9998           -0.5983539             -16.2820
        33        1.9982           -0.5793004             -15.7636
        34        1.9862           -0.5630571             -15.3216
        35        1.9494           -0.5526130             -15.0374
        36        1.9419           -0.5514926             -15.0069
        37        1.1565           -0.5262055             -14.3188 (HOMO)
        38        0.9679           -0.5231979             -14.2369 (LUMO)
        39        0.0000           -0.4108409             -11.1796
        40                         -0.3843267             -10.4581
        41                         -0.3338972              -9.0858
        42                         -0.2550882              -6.9413
        43                         -0.2050839              -5.5806
        44                         -0.1786908              -4.8624
        45                         -0.1705875              -4.6419
        46                         -0.0963276              -2.6212
        47                         -0.0796696              -2.1679
        48                         -0.0493260              -1.3422
       ...                                ...                  ...
        67                         13.5896929             369.7944
      -------------------------------------------------------------
                  HL-Gap            0.0030076 Eh            0.0818 eV

     #   Z          covCN         q      C6AA      α(0)
     1   6 C        2.790    -0.049    29.200     8.852
     2   7 N        2.819     0.133    18.973     6.469
     3   6 C        3.033     0.037    27.151     8.547
     4   7 N        2.789    -0.051    22.217     7.001
     5   6 C        3.014     0.114    25.467     8.278
     6   6 C        3.108    -0.029    28.567     8.757
     7   6 C        3.644     0.150    18.483     6.180
     8   8 O        0.866    -0.432    22.329     6.336
     9   7 N        2.716    -0.126    23.746     7.237
    10   6 C        3.702    -0.056    21.743     6.668
    11   6 C        2.718     0.319    21.583     7.605
    12   8 O        0.859    -0.358    20.852     6.122
    13   7 N        2.737    -0.066    22.518     7.048
    14   6 C        3.697    -0.071    22.040     6.715
    15   1 H        0.926     0.122     1.600     1.978
    16   1 H        0.955     0.214     1.027     1.584
    17   1 H        0.926     0.157     1.344     1.813
    18   1 H        0.926     0.130     1.535     1.937
    19   1 H        0.925     0.118     1.626     1.994
    20   1 H        0.924     0.104     1.748     2.068
    21   1 H        0.924     0.113     1.669     2.020
    22   1 H        0.924     0.081     1.969     2.195
    23   1 H        0.925     0.083     1.953     2.185
    24   1 H        0.925     0.128     1.549     1.946
    25   1 H        0.860     0.235     0.945     1.523

Wiberg/Mayer (AO) data.
largest (>0.10) Wiberg bond orders for each atom

     #   Z sym  total        # sym  WBO       # sym  WBO       # sym  WBO
 ---------------------------------------------------------------------------
     1   6 C    3.343 --     2 N    1.325    15 H    0.964    17 H    0.950
     2   7 N    3.764 --     1 C    1.325     3 C    1.220     6 C    1.120
     3   6 C    3.657 --     4 N    1.303     2 N    1.220    18 H    0.952
     4   7 N    3.523 --     3 C    1.303     5 C    1.150    25 H    0.916
     5   6 C    3.937 --     6 C    1.417    13 N    1.204     4 N    1.150
     6   6 C    3.762 --     5 C    1.417     2 N    1.120     7 C    0.883
     7   6 C    3.870 --     8 O    1.279     6 C    0.883    16 H    0.855
                             9 N    0.778
     8   8 O    1.558 --     7 C    1.279     9 N    0.129
     9   7 N    3.321 --    11 C    1.187    10 C    1.015     7 C    0.778
                            12 O    0.141     8 O    0.129
    10   6 C    3.897 --     9 N    1.015    19 H    0.961    20 H    0.935
                            21 H    0.934
    11   6 C    3.952 --    12 O    1.691     9 N    1.187    13 N    0.993
    12   8 O    2.035 --    11 C    1.691     9 N    0.141    13 N    0.111
    13   7 N    3.473 --     5 C    1.204    11 C    0.993    14 C    0.981
                            12 O    0.111
    14   6 C    3.922 --    13 N    0.981    23 H    0.970    22 H    0.965
                            24 H    0.963
    15   1 H    0.984 --     1 C    0.964
    16   1 H    0.906 --     7 C    0.855
    17   1 H    0.975 --     1 C    0.950
    18   1 H    0.982 --     3 C    0.952
    19   1 H    0.983 --    10 C    0.961
    20   1 H    0.958 --    10 C    0.935
    21   1 H    0.956 --    10 C    0.934
    22   1 H    0.983 --    14 C    0.965
    23   1 H    0.985 --    14 C    0.970
    24   1 H    0.983 --    14 C    0.963
    25   1 H    0.944 --     4 N    0.916
 ---------------------------------------------------------------------------

molecular dipole:
                 x           y           z       tot (Debye)
 q only:        2.689      -2.114      -0.057
   full:        2.921      -2.545      -0.105       9.850

           -------------------------------------------------
          | TOTAL ENERGY              -73.274611891504 Eh   |
          | GRADIENT NORM               0.001920491356 Eh/α |
          | HOMO-LUMO GAP               0.081841798125 eV   |
           -------------------------------------------------

 * finished run on 2024/06/05 at 19:58:13.971
