   * xtb version 6.6.1 (8d0f1dd) compiled by 'conda@1efc2f54142f' on 2023-08-01
          program call               : xtb xtbopt.xyz --opt crude --input .xc2 --gfn2

   ID    Z sym.   atoms
    1    6 C      1, 3, 5-7, 10, 11, 14
    2    7 N      2, 4, 9, 13
    3    8 O      8, 12
    4    1 H      15-25
########################################################################
[WARNING] Please study the warnings concerning your input carefully
-1- readin_getIntValue: could not parse ''
########################################################################

          :  Hamiltonian                  GFN2-xTB          :
 * total energy  :   -39.8002060 Eh     change       -0.8709833E-10 Eh
 * total energy  :   -42.0788763 Eh     change       -0.2278670E+01 Eh
 * total energy  :   -42.0872930 Eh     change       -0.8416700E-02 Eh
 * total energy  :   -42.0918485 Eh     change       -0.4555530E-02 Eh
 * total energy  :   -42.0945034 Eh     change       -0.2654891E-02 Eh
 * total energy  :   -42.0955137 Eh     change       -0.1010370E-02 Eh
 * total energy  :   -42.0967173 Eh     change       -0.1203579E-02 Eh
 * total energy  :   -42.0978043 Eh     change       -0.1086946E-02 Eh
 * total energy  :   -42.0985917 Eh     change       -0.7874025E-03 Eh
 * total energy  :   -42.0991153 Eh     change       -0.5236004E-03 Eh
 * total energy  :   -42.0993547 Eh     change       -0.2394588E-03 Eh
   *** GEOMETRY OPTIMIZATION CONVERGED AFTER 11 ITERATIONS ***

 final structure:
================
25
 xtb: 6.6.1 (8d0f1dd)
C            3.29466582792192        1.00794162162982        0.25200961207582
N            2.40807352091228        0.01855497309330        0.18076145225280
C            2.61940057913130       -1.30578473194318        0.40820995289368
N            1.45532124127387       -1.97589380104822        0.28042392758160
C            0.47044925783158       -1.07475472533278       -0.04286981907661
C            1.06619037396773        0.16024607640158       -0.11542823063565
C            0.28833558614255        1.41279435583103       -0.42428598445670
O            0.72121277706746        2.53519631204616       -0.00809046422790
N           -1.14628423977789        1.07502783444941       -0.10388334039460
C           -2.01384039424140        2.19972522896621        0.13271942980521
C           -1.72819524221767       -0.15880259932893       -0.14788907137784
O           -2.91439529592224       -0.33337529451448       -0.10392527712023
N           -0.85102894707461       -1.28482021648500       -0.19272519644784
C           -1.42937546920444       -2.61184949690477       -0.18830455653823
H            4.31670308653553        0.79105020991934        0.49883234179292
H            0.23632356521015        1.43409926363132       -1.56346003865705
H            2.93824281077287        2.01313063869532        0.09465667508171
H            3.56572111242267       -1.74273507111069        0.65341303371825
H           -1.38315696872440        3.06517967724419        0.33162126233319
H           -2.65782450675247        2.38972982289098       -0.72945519655863
H           -2.66024865132384        1.99249722375997        0.98665009855517
H           -1.30279521179972       -3.09492388093566        0.78233568054789
H           -0.97990763869373       -3.22040524742289       -0.97276190825135
H           -2.49596099388726       -2.50187198327911       -0.38238991080268
H            1.34280533452972       -2.97171764865264        0.40500714580703

          :  Hamiltonian                  GFN2-xTB          :
         :: total energy             -42.099354732636 Eh    ::
         :: gradient norm              0.008702678730 Eh/a0 ::
         :: HOMO-LUMO gap              0.098659186362 eV    ::
         :: SCC energy               -42.604342592180 Eh    ::
         :: -> dispersion             -0.022820405152 Eh    ::
         :: repulsion energy           0.504837859968 Eh    ::

    * Orbital Energies and Occupations

         #    Occupation            Energy/Eh            Energy/eV
      -------------------------------------------------------------
         1        2.0000           -0.9174870             -24.9661
       ...           ...                  ...                  ...
        25        2.0000           -0.6696612             -18.2224
        26        2.0000           -0.6615057             -18.0005
        27        2.0000           -0.6556991             -17.8425
        28        2.0000           -0.6441584             -17.5284
        29        2.0000           -0.6310225             -17.1710
        30        2.0000           -0.6240497             -16.9813
        31        2.0000           -0.6196886             -16.8626
        32        1.9999           -0.5971958             -16.2505
        33        1.9983           -0.5765129             -15.6877
        34        1.9865           -0.5600084             -15.2386
        35        1.9689           -0.5533388             -15.0571
        36        1.9525           -0.5499154             -14.9640
        37        1.1607           -0.5230610             -14.2332 (HOMO)
        38        0.9332           -0.5194353             -14.1346 (LUMO)
        39        0.0000           -0.4087260             -11.1220
        40                         -0.3803485             -10.3498
        41                         -0.3352792              -9.1234
        42                         -0.2097589              -5.7078
        43                         -0.1986333              -5.4051
        44                         -0.1617098              -4.4003
        45                         -0.1426208              -3.8809
        46                         -0.0938070              -2.5526
        47                         -0.0640126              -1.7419
        48                         -0.0488627              -1.3296
       ...                                ...                  ...
        67                          0.5255788              14.3017
      -------------------------------------------------------------
                  HL-Gap            0.0036257 Eh            0.0987 eV

     #   Z          covCN         q      C6AA      α(0)
     1   6 C        2.790    -0.052    29.264     8.861
     2   7 N        2.818     0.131    19.011     6.476
     3   6 C        3.035     0.034    27.203     8.555
     4   7 N        2.788    -0.052    22.239     7.004
     5   6 C        3.017     0.113    25.495     8.283
     6   6 C        3.108    -0.028    28.560     8.756
     7   6 C        3.657     0.221    17.395     5.986
     8   8 O        0.856    -0.423    22.156     6.311
     9   7 N        2.733    -0.106    23.313     7.171
    10   6 C        3.704    -0.059    21.801     6.676
    11   6 C        2.720     0.316    21.628     7.613
    12   8 O        0.860    -0.359    20.883     6.127
    13   7 N        2.738    -0.067    22.543     7.052
    14   6 C        3.696    -0.070    22.029     6.714
    15   1 H        0.926     0.121     1.605     1.981
    16   1 H        0.915     0.138     1.478     1.901
    17   1 H        0.926     0.156     1.350     1.817
    18   1 H        0.926     0.129     1.546     1.944
    19   1 H        0.925     0.119     1.622     1.992
    20   1 H        0.924     0.104     1.749     2.068
    21   1 H        0.924     0.110     1.699     2.038
    22   1 H        0.924     0.082     1.955     2.186
    23   1 H        0.925     0.082     1.958     2.188
    24   1 H        0.925     0.128     1.552     1.948
    25   1 H        0.860     0.233     0.951     1.527

Wiberg/Mayer (AO) data.
largest (>0.10) Wiberg bond orders for each atom

     #   Z sym  total        # sym  WBO       # sym  WBO       # sym  WBO
 ---------------------------------------------------------------------------
     1   6 C    3.346 --     2 N    1.324    15 H    0.964    17 H    0.949
     2   7 N    3.763 --     1 C    1.324     3 C    1.222     6 C    1.119
     3   6 C    3.654 --     4 N    1.294     2 N    1.222    18 H    0.953
     4   7 N    3.524 --     3 C    1.294     5 C    1.156    25 H    0.917
     5   6 C    3.936 --     6 C    1.410    13 N    1.203     4 N    1.156
     6   6 C    3.809 --     5 C    1.410     2 N    1.119     7 C    0.944
     7   6 C    3.937 --     8 O    1.298     6 C    0.944     9 N    0.869
                            16 H    0.762
     8   8 O    1.583 --     7 C    1.298     9 N    0.125
     9   7 N    3.377 --    11 C    1.176    10 C    1.001     7 C    0.869
                            12 O    0.143     8 O    0.125
    10   6 C    3.901 --     9 N    1.001    19 H    0.963    21 H    0.944
                            20 H    0.939
    11   6 C    3.955 --    12 O    1.697     9 N    1.176    13 N    0.998
    12   8 O    2.046 --    11 C    1.697     9 N    0.143    13 N    0.115
    13   7 N    3.477 --     5 C    1.203    11 C    0.998    14 C    0.980
                            12 O    0.115
    14   6 C    3.923 --    13 N    0.980    23 H    0.970    22 H    0.966
                            24 H    0.963
    15   1 H    0.984 --     1 C    0.964
    16   1 H    0.800 --     7 C    0.762
    17   1 H    0.975 --     1 C    0.949
    18   1 H    0.982 --     3 C    0.953
    19   1 H    0.984 --    10 C    0.963
    20   1 H    0.963 --    10 C    0.939
    21   1 H    0.965 --    10 C    0.944
    22   1 H    0.983 --    14 C    0.966
    23   1 H    0.986 --    14 C    0.970
    24   1 H    0.983 --    14 C    0.963
    25   1 H    0.945 --     4 N    0.917
 ---------------------------------------------------------------------------

molecular dipole:
                 x           y           z       tot (Debye)
 q only:        2.621      -2.078      -0.031
   full:        2.876      -2.552      -0.122       9.778

           -------------------------------------------------
          | TOTAL ENERGY              -42.099354732636 Eh   |
          | GRADIENT NORM               0.008702678730 Eh/α |
          | HOMO-LUMO GAP               0.098659186362 eV   |
           -------------------------------------------------

 * finished run on 2024/06/05 at 19:58:14.456
