   * xtb version 6.6.1 (8d0f1dd) compiled by 'conda@1efc2f54142f' on 2023-08-01
          program call               : xtb struc.xyz --opt loose --input .xc1 --gfn2

   ID    Z sym.   atoms
    1    7 N      1, 17
    2    6 C      2-6, 8, 9, 11-16, 18-23, 25, 26, 28-33
    3    8 O      7, 10, 24, 27
    4    1 H      34-72
constraining bond 9 38 to    3.7133300 Å, actual value:    2.6883938 Å

          :  Hamiltonian                  GFN2-xTB          :
 * total energy  :   -99.5917000 Eh     change       -0.4035485E-08 Eh
 * total energy  :   -99.8481007 Eh     change       -0.2564006E+00 Eh
 * total energy  :  -100.1585743 Eh     change       -0.3104737E+00 Eh
 * total energy  :  -100.5172394 Eh     change       -0.3586650E+00 Eh
 * total energy  :   -99.4861809 Eh     change        0.1031058E+01 Eh
 * total energy  :  -100.5983636 Eh     change       -0.1112183E+01 Eh
 * total energy  :  -100.6537012 Eh     change       -0.5533766E-01 Eh
 * total energy  :  -100.6737583 Eh     change       -0.2005702E-01 Eh
 * total energy  :  -100.6894336 Eh     change       -0.1567539E-01 Eh
 * total energy  :  -100.6965186 Eh     change       -0.7084941E-02 Eh
 * total energy  :  -100.7860394 Eh     change       -0.1138095E-03 Eh
 * total energy  :  -100.7861178 Eh     change       -0.7847710E-04 Eh
 * total energy  :  -100.7861827 Eh     change       -0.6492101E-04 Eh
 * total energy  :  -100.7862498 Eh     change       -0.6706168E-04 Eh
 * total energy  :  -100.7862622 Eh     change       -0.1241563E-04 Eh
 * total energy  :  -100.7860752 Eh     change        0.1870729E-03 Eh
 * total energy  :  -100.7863595 Eh     change       -0.2843687E-03 Eh
 * total energy  :  -100.7863864 Eh     change       -0.2687871E-04 Eh
 * total energy  :  -100.7864333 Eh     change       -0.4688977E-04 Eh
   *** GEOMETRY OPTIMIZATION CONVERGED AFTER 48 ITERATIONS ***

 final structure:
================
72
 xtb: 6.6.1 (8d0f1dd)
N           -1.81881927830168        3.03567653329409        2.10003869854121
C           -1.88128877181733        2.16086650544666        1.21098185993371
C           -3.05670280832154        1.95463124605143        0.29640601517482
C           -3.64535709480125        0.57108925505721        0.53539758587680
C           -4.59330632665798        0.06068722737404       -0.34704466924132
C           -5.16396910509291       -1.18892607073713       -0.13193075601582
O           -6.09089355143027       -1.75679330350940       -0.93631915432793
C           -6.59980298713619       -1.03734789984711       -2.03515543097675
C           -4.79284464718794       -1.97519519943372        0.98034441548528
O           -2.26381319722847       -3.57960368045799       -0.18382522320489
C           -2.89202256310348       -4.54510230126022        0.16829723609062
C           -3.84830312883984       -1.43959328459450        1.84355015094331
C           -3.27972340873155       -0.19218986875412        1.63702250629967
C           -2.49607379439989        2.05125440181311       -1.14686098724649
C           -1.62759986291965        0.85432704145662       -1.56560885903685
C           -0.27105641492641        0.88437915932417       -0.97692814406116
N            0.41510600865390       -0.17789721386442       -0.60041098481589
C            1.79608493191698       -0.05688037253461       -0.19755306049146
C            2.75509351773721       -0.45348792278192       -1.33682345354707
C            4.17664386975058       -0.22893718463288       -0.90465931953113
C            4.79156087512010        0.99534090997844       -1.11207377952502
C            6.09101340743379        1.21835712213312       -0.68487844970083
C            6.80214325452870        0.21976588387475       -0.03429475043422
O            8.06275970295469        0.32487167905104        0.42245019159746
C            8.76479636693868        1.53223544471409        0.23397994662825
C            6.17825489482576       -1.04035049844095        0.18536632724506
O            6.93864131991339       -1.95378713026524        0.81902184655977
C            6.41803038957242       -3.24015481315048        1.05649680317693
C            4.87719745960062       -1.23886587694735       -0.24997688127406
C           -0.14321099868997       -1.50647010923437       -0.65499734346372
C           -4.19025052540954        3.00290219622873        0.49903030277011
C           -4.80804623610038        2.89260619864353        1.89118018172530
C           -3.73818648112124        4.43900470843544        0.24904497350904
H           -4.89469870584219        0.64459171209705       -1.20120217666563
H           -7.06816017520907       -0.10169657101503       -1.71645514636985
H           -7.35466071066723       -1.68180704672078       -2.48322974468311
H           -5.81892165524518       -0.82642405721800       -2.77294083861736
H           -5.12004403211485       -2.67923326935676        1.09210020176941
H           -3.75515437427933       -4.92868560934502       -0.39373528570908
H           -2.63770769439718       -5.11387382393888        1.07541421851937
H           -3.55386392609312       -2.01590165662084        2.70902092797844
H           -2.57116071728032        0.19200594934011        2.35396435039225
H           -3.33292127263916        2.12804723938800       -1.83990268804319
H           -1.91137261983904        2.96752579144691       -1.23665342339840
H           -2.14220481898620       -0.07794296819345       -1.33332024293174
H           -1.51254642200698        0.90298149516533       -2.65666638914309
H           -1.05037213571274        1.47037642062025        0.96951811920944
H            0.25046433869662        1.83088545898717       -0.96439226607828
H            1.97365715215655       -0.70047306505920        0.66795649907427
H            2.00231759376131        0.97537534329858        0.09424043652403
H            2.53151529216731        0.15805256873247       -2.21268080964294
H            2.60048686078112       -1.50094520540971       -1.59773210651961
H            4.26323481808090        1.78616471255966       -1.62257555750970
H            6.54534147798080        2.17811850801685       -0.86803205808946
H            8.27083501328660        2.36616904340741        0.74192433394145
H            8.87928459195999        1.76691732445180       -0.82846392887130
H            9.74619262340761        1.37115178775184        0.67580304006882
H            7.21403952537144       -3.78997242259469        1.55466834694334
H            5.54074795484400       -3.20353330476599        1.71024073885508
H            6.15853608168690       -3.74666910693863        0.12177652178537
H            4.39738363160164       -2.19248681686396       -0.09477129326237
H           -0.37145444038399       -1.79957222795395       -1.68045738717602
H           -1.06440411334112       -1.57269837374054       -0.07444554691885
H            0.56547691833163       -2.21867460630529       -0.24331902893429
H           -4.96868050051092        2.76074625316261       -0.23387863735528
H           -4.07324936882506        3.15318715241973        2.64662997477717
H           -5.17058157384561        1.88534107620823        2.08308539103351
H           -5.64658350658355        3.57966443582132        1.97279511623593
H           -2.93333837313648        4.70419171917374        0.92782573555613
H           -3.41031986681724        4.58986686556697       -0.77607976000061
H           -4.57242768884130        5.11085460383324        0.43284817152113
H           -0.96422440117026        3.10610141066372        2.64311923981068

          :  Hamiltonian                  GFN2-xTB          :
         :: total energy            -100.786433290826 Eh    ::
         :: gradient norm              0.003514179470 Eh/a0 ::
         :: HOMO-LUMO gap              1.713410824413 eV    ::
         :: SCC energy              -100.793919056435 Eh    ::
         :: -> dispersion             -0.074507598432 Eh    ::
         :: repulsion energy           1.537767989597 Eh    ::

    * Orbital Energies and Occupations

         #    Occupation            Energy/Eh            Energy/eV
      -------------------------------------------------------------
         1        2.0000           -0.8102530             -22.0481
       ...           ...                  ...                  ...
        78        1.9979           -0.5288326             -14.3903
        79        1.9976           -0.5270578             -14.3420
        80        1.9967           -0.5220156             -14.2048
        81        1.9966           -0.5214587             -14.1896
        82        1.9953           -0.5162586             -14.0481
        83        1.9942           -0.5127574             -13.9528
        84        1.9913           -0.5063370             -13.7781
        85        1.9850           -0.4977089             -13.5433
        86        1.9813           -0.4942017             -13.4479
        87        1.9764           -0.4904979             -13.3471
        88        1.9265           -0.4720728             -12.8458
        89        1.9209           -0.4708765             -12.8132
        90        1.8291           -0.4578930             -12.4599 (HOMO)
        91        0.3342           -0.3949263             -10.7465 (LUMO)
        92        0.0654           -0.3667415              -9.9795
        93        0.0122           -0.3397688              -9.2456
        94        0.0039           -0.3216673              -8.7530
        95        0.0025           -0.3144743              -8.5573
        96        0.0022           -0.3121729              -8.4947
        97        0.0017           -0.3081891              -8.3863
        98        0.0000           -0.1899750              -5.1695
        99        0.0000           -0.1896429              -5.1604
       100                         -0.1333199              -3.6278
       101                         -0.0684385              -1.8623
       ...                                ...                  ...
       171                          1.2270697              33.3903
      -------------------------------------------------------------
                  HL-Gap            0.0629667 Eh            1.7134 eV

     #   Z          covCN         q      C6AA      α(0)
     1   7 N        1.774    -0.267    27.743     7.800
     2   6 C        2.827     0.103    25.719     8.310
     3   6 C        3.908     0.006    20.427     6.424
     4   6 C        2.978     0.013    27.728     8.638
     5   6 C        2.917    -0.075    29.861     8.961
     6   6 C        2.866     0.148    24.785     8.161
     7   8 O        1.706    -0.248    18.113     5.746
     8   6 C        3.642     0.030    20.416     6.496
     9   6 C        2.914    -0.078    29.936     8.972
    10   8 O        0.856    -0.322    20.178     6.022
    11   6 C        2.702     0.175    24.223     8.056
    12   6 C        2.921    -0.031    28.762     8.795
    13   6 C        2.918    -0.049    29.226     8.865
    14   6 C        3.813    -0.065    21.731     6.635
    15   6 C        3.802    -0.072    21.869     6.658
    16   6 C        2.847     0.013    27.711     8.627
    17   7 N        2.729     0.025    20.805     6.774
    18   6 C        3.757    -0.019    20.956     6.527
    19   6 C        3.808    -0.071    21.847     6.654
    20   6 C        2.969     0.001    28.006     8.681
    21   6 C        2.922    -0.048    29.199     8.861
    22   6 C        2.914    -0.067    29.671     8.932
    23   6 C        2.865     0.134    25.066     8.207
    24   8 O        1.706    -0.220    17.646     5.672
    25   6 C        3.645     0.024    20.499     6.507
    26   6 C        2.863     0.134    25.070     8.207
    27   8 O        1.706    -0.222    17.692     5.679
    28   6 C        3.645     0.026    20.468     6.502
    29   6 C        2.919    -0.079    29.980     8.979
    30   6 C        3.702    -0.080    22.191     6.736
    31   6 C        3.853    -0.007    20.666     6.466
    32   6 C        3.756    -0.118    22.814     6.810
    33   6 C        3.755    -0.119    22.841     6.815
    34   1 H        0.926     0.046     2.375     2.410
    35   1 H        0.924     0.052     2.300     2.372
    36   1 H        0.925     0.077     2.013     2.219
    37   1 H        0.924     0.046     2.367     2.406
    38   1 H        0.930     0.098     1.801     2.098
    39   1 H        0.923     0.051     2.307     2.375
    40   1 H        0.923     0.047     2.364     2.404
    41   1 H        0.926     0.046     2.366     2.405
    42   1 H        0.926     0.036     2.499     2.472
    43   1 H        0.925     0.061     2.185     2.312
    44   1 H        0.924     0.054     2.275     2.359
    45   1 H        0.925     0.078     2.003     2.213
    46   1 H        0.923     0.083     1.945     2.181
    47   1 H        0.922     0.007     2.940     2.682
    48   1 H        0.926     0.072     2.063     2.246
    49   1 H        0.924     0.072     2.063     2.246
    50   1 H        0.924     0.067     2.117     2.276
    51   1 H        0.924     0.056     2.251     2.346
    52   1 H        0.924     0.059     2.212     2.326
    53   1 H        0.926     0.046     2.369     2.407
    54   1 H        0.926     0.059     2.205     2.322
    55   1 H        0.924     0.055     2.257     2.349
    56   1 H        0.924     0.057     2.235     2.338
    57   1 H        0.925     0.083     1.945     2.181
    58   1 H        0.925     0.083     1.950     2.184
    59   1 H        0.924     0.050     2.319     2.381
    60   1 H        0.924     0.054     2.274     2.358
    61   1 H        0.926     0.049     2.330     2.387
    62   1 H        0.924     0.086     1.923     2.168
    63   1 H        0.924     0.104     1.748     2.067
    64   1 H        0.925     0.085     1.927     2.171
    65   1 H        0.924     0.038     2.474     2.460
    66   1 H        0.925     0.068     2.110     2.272
    67   1 H        0.925     0.037     2.489     2.467
    68   1 H        0.925     0.052     2.301     2.372
    69   1 H        0.925     0.063     2.169     2.303
    70   1 H        0.925     0.035     2.519     2.482
    71   1 H        0.925     0.055     2.257     2.349
    72   1 H        0.860     0.157     1.353     1.822

Wiberg/Mayer (AO) data.
largest (>0.10) Wiberg bond orders for each atom

     #   Z sym  total        # sym  WBO       # sym  WBO       # sym  WBO
 ---------------------------------------------------------------------------
     1   7 N    3.038 --     2 C    1.956    72 H    0.941
     2   6 C    3.932 --     1 N    1.956     3 C    0.994    47 H    0.902
     3   6 C    3.974 --     2 C    0.994     4 C    0.969    14 C    0.956
                            31 C    0.943
     4   6 C    3.966 --    13 C    1.406     5 C    1.400     3 C    0.969
                             9 C    0.101
     5   6 C    3.956 --     4 C    1.400     6 C    1.369    34 H    0.958
     6   6 C    3.911 --     5 C    1.369     9 C    1.313     7 O    1.092
     7   8 O    2.242 --     6 C    1.092     8 C    0.978
     8   6 C    3.935 --     7 O    0.978    36 H    0.977    35 H    0.974
                            37 H    0.974
     9   6 C    3.952 --    12 C    1.469     6 C    1.313    38 H    0.973
                             4 C    0.101
    10   8 O    2.027 --    11 C    1.933
    11   6 C    3.824 --    10 O    1.933    39 H    0.944    40 H    0.944
    12   6 C    3.977 --     9 C    1.469    13 C    1.415    41 H    0.968
    13   6 C    3.951 --    12 C    1.415     4 C    1.406    42 H    0.962
    14   6 C    3.979 --    15 C    0.988    44 H    0.972    43 H    0.968
                             3 C    0.956
    15   6 C    3.986 --    16 C    1.061    14 C    0.988    45 H    0.955
                            46 H    0.922
    16   6 C    3.642 --    17 N    1.443    15 C    1.061    48 H    0.956
    17   7 N    3.518 --    16 C    1.443    30 C    0.995    18 C    0.988
    18   6 C    3.955 --    17 N    0.988    50 H    0.968    19 C    0.966
                            49 H    0.963
    19   6 C    3.977 --    20 C    1.008    51 H    0.972    52 H    0.971
                            18 C    0.966
    20   6 C    3.941 --    21 C    1.407    29 C    1.381    19 C    1.008
    21   6 C    3.947 --    22 C    1.418    20 C    1.407    53 H    0.968
    22   6 C    3.957 --    21 C    1.418    23 C    1.381    54 H    0.963
    23   6 C    3.892 --    22 C    1.381    26 C    1.217    24 O    1.113
    24   8 O    2.255 --    23 C    1.113    25 C    0.975
    25   6 C    3.927 --    57 H    0.977    24 O    0.975    55 H    0.972
                            56 H    0.972
    26   6 C    3.896 --    29 C    1.393    23 C    1.217    27 O    1.107
    27   8 O    2.255 --    26 C    1.107    28 C    0.978
    28   6 C    3.930 --    27 O    0.978    58 H    0.977    59 H    0.973
                            60 H    0.973
    29   6 C    3.957 --    26 C    1.393    20 C    1.381    61 H    0.962
    30   6 C    3.946 --    17 N    0.995    64 H    0.977    62 H    0.964
                            63 H    0.954
    31   6 C    3.973 --    33 C    1.008    32 C    1.008    65 H    0.959
                             3 C    0.943
    32   6 C    3.977 --    31 C    1.008    67 H    0.981    68 H    0.981
                            66 H    0.974
    33   6 C    3.980 --    31 C    1.008    70 H    0.983    71 H    0.980
                            69 H    0.975
    34   1 H    0.997 --     5 C    0.958
    35   1 H    0.994 --     8 C    0.974
    36   1 H    0.993 --     8 C    0.977
    37   1 H    0.994 --     8 C    0.974
    38   1 H    0.990 --     9 C    0.973
    39   1 H    0.993 --    11 C    0.944
    40   1 H    0.993 --    11 C    0.944
    41   1 H    0.995 --    12 C    0.968
    42   1 H    0.998 --    13 C    0.962
    43   1 H    0.995 --    14 C    0.968
    44   1 H    0.996 --    14 C    0.972
    45   1 H    0.992 --    15 C    0.955
    46   1 H    0.971 --    15 C    0.922
    47   1 H    0.985 --     2 C    0.902
    48   1 H    0.994 --    16 C    0.956
    49   1 H    0.990 --    18 C    0.963
    50   1 H    0.994 --    18 C    0.968
    51   1 H    0.996 --    19 C    0.972
    52   1 H    0.995 --    19 C    0.971
    53   1 H    0.997 --    21 C    0.968
    54   1 H    0.995 --    22 C    0.963
    55   1 H    0.991 --    25 C    0.972
    56   1 H    0.991 --    25 C    0.972
    57   1 H    0.992 --    25 C    0.977
    58   1 H    0.992 --    28 C    0.977
    59   1 H    0.992 --    28 C    0.973
    60   1 H    0.992 --    28 C    0.973
    61   1 H    0.996 --    29 C    0.962
    62   1 H    0.984 --    30 C    0.964
    63   1 H    0.982 --    30 C    0.954
    64   1 H    0.993 --    30 C    0.977
    65   1 H    0.991 --    31 C    0.959
    66   1 H    0.990 --    32 C    0.974
    67   1 H    0.996 --    32 C    0.981
    68   1 H    0.994 --    32 C    0.981
    69   1 H    0.992 --    33 C    0.975
    70   1 H    0.997 --    33 C    0.983
    71   1 H    0.993 --    33 C    0.980
    72   1 H    0.969 --     1 N    0.941
 ---------------------------------------------------------------------------

molecular dipole:
                 x           y           z       tot (Debye)
 q only:        0.771      -0.029      -0.908
   full:        0.864      -0.301      -1.109       3.655

           -------------------------------------------------
          | TOTAL ENERGY             -100.786433290826 Eh   |
          | GRADIENT NORM               0.003514179470 Eh/α |
          | HOMO-LUMO GAP               1.713410824413 eV   |
           -------------------------------------------------

 * finished run on 2024/04/06 at 11:16:14.620
