   * xtb version 6.6.1 (8d0f1dd) compiled by 'conda@1efc2f54142f' on 2023-08-01
          program call               : xtb xtbopt.xyz --opt crude --input .xc2 --gfn2

   ID    Z sym.   atoms
    1    7 N      1, 17
    2    6 C      2-6, 8, 9, 11-16, 18-23, 25, 26, 28-33
    3    8 O      7, 10, 24, 27
    4    1 H      34-72

          :  Hamiltonian                  GFN2-xTB          :
 * total energy  :   -99.2546480 Eh     change       -0.5826450E-12 Eh
 * total energy  :   -99.3611384 Eh     change       -0.1064904E+00 Eh
 * total energy  :   -99.3625190 Eh     change       -0.1380682E-02 Eh
 * total energy  :   -99.3620621 Eh     change        0.4568903E-03 Eh
 * total energy  :   -99.3617405 Eh     change        0.3216690E-03 Eh
 * total energy  :   -99.3631243 Eh     change       -0.1383843E-02 Eh
 * total energy  :   -99.3631736 Eh     change       -0.4927960E-04 Eh
   *** GEOMETRY OPTIMIZATION CONVERGED AFTER 7 ITERATIONS ***

 final structure:
================
72
 xtb: 6.6.1 (8d0f1dd)
N           -1.81666692204841        3.04134727498337        2.09488606740731
C           -1.87974864878124        2.16482740208729        1.20815328958130
C           -3.05543093980164        1.95571677702357        0.29443291969428
C           -3.64131140655794        0.57027218501792        0.53667624361931
C           -4.58740038029387        0.05640427828274       -0.34630103514308
C           -5.16516254237464       -1.19130789379729       -0.12735265324024
O           -6.09106940513594       -1.76309093274573       -0.92703063273127
C           -6.59489293338476       -1.04468722907323       -2.03001198916522
C           -4.78161449316901       -1.93783444395690        0.99270677519140
O           -2.27922114747558       -3.56596880220558       -0.19600666285358
C           -2.91535978548424       -4.52957070682745        0.14167404446942
C           -3.84584277724245       -1.43021187147648        1.86558655595291
C           -3.27673798783392       -0.18369284053237        1.64532369683266
C           -2.49517688334107        2.05357160751382       -1.14892624303038
C           -1.62414327461812        0.85848664581620       -1.56662287596919
C           -0.26836913562855        0.89162266400026       -0.97643130578178
N            0.41987747533448       -0.16994904277170       -0.60139280696819
C            1.80096146979051       -0.04744872647900       -0.19977205465671
C            2.75906442648276       -0.45089914165020       -1.33718691950544
C            4.18087499444142       -0.22825163788988       -0.90482275688327
C            4.79643803955739        0.99584555738021       -1.11158933557857
C            6.09586747990832        1.21825223216198       -0.68398470248044
C            6.80611462594765        0.21875501002381       -0.03399557595594
O            8.06684125595399        0.32234873168189        0.42281581121827
C            8.77030203196565        1.52876334536961        0.23397432364486
C            6.18162547525079       -1.04122906901908        0.18489994911974
O            6.94219674009924       -1.95466087882773        0.81825945332295
C            6.42240874834518       -3.24132428232274        1.05580180198946
C            4.88051590860271       -1.23906501908720       -0.25057346586382
C           -0.13789416765111       -1.49883217156531       -0.65194427938063
C           -4.19030186427149        3.00289386358042        0.49616913577849
C           -4.80838422337103        2.89375718095571        1.88816507391710
C           -3.73978686995742        4.43961266508292        0.24520824350255
H           -4.88452762221873        0.63887332066358       -1.20304357766226
H           -7.06275897353344       -0.10675849306907       -1.71640721970013
H           -7.34844330820274       -1.68812049310890       -2.48000323751571
H           -5.81225065725614       -0.83766347176394       -2.76680319206233
H           -5.24247094111994       -2.89805454454965        1.15509771809393
H           -3.76622582618753       -4.91031193481980       -0.43944093625480
H           -2.68029160502587       -5.10032374807234        1.05183373251278
H           -3.55874699614149       -2.00118389177953        2.73499477536881
H           -2.56905171838043        0.20787289462629        2.35957957018314
H           -3.33196447080020        2.12931649688395       -1.84233919686026
H           -1.91245570846298        2.97127246716338       -1.23864361091131
H           -2.13713681439853       -0.07437324481695       -1.33331820563331
H           -1.50784020394634        0.90550863283678       -2.65763059363839
H           -1.04735794094031        1.47626814982493        0.96530053507137
H            0.25131321512659        1.83929792556792       -0.96336091769575
H            1.97858647365442       -0.68594666161833        0.66929422821571
H            2.00781659696556        0.98622918755439        0.08592533095426
H            2.53749143762358        0.15821055253407       -2.21524047607663
H            2.60165638157962       -1.49876358452913       -1.59456209698274
H            4.26827855607239        1.78689177580838       -1.62194827656358
H            6.55052503669086        2.17802501496253       -0.86615148405577
H            8.27804645892923        2.36314840838318        0.74275087058486
H            8.88381439064131        1.76357857827940       -0.82853898428773
H            9.75194385134763        1.36622648060435        0.67462401661798
H            7.21909473373902       -3.79064866162354        1.55354283958708
H            5.54541704689409       -3.20538385990534        1.70998650749453
H            6.16274662618429       -3.74799528339644        0.12121928654837
H            4.40023107343197       -2.19254200711777       -0.09600809755622
H           -0.36605138752039       -1.79499640529954       -1.67651896127370
H           -1.05930739333772       -1.56362518891049       -0.07147914815908
H            0.57138470356011       -2.20912685740167       -0.23805863616503
H           -4.96847377327828        2.75966685757392       -0.23672872836686
H           -4.07399577923036        3.15507141808844        2.64349333952144
H           -5.17069396775324        1.88685119408150        2.08081721565474
H           -5.64702260782528        3.58018955789495        1.96961211753156
H           -2.93536774346606        4.70641823278113        0.92362741823312
H           -3.41221383943949        4.59126062704302       -0.77991387880087
H           -4.57478267062328        5.11064918068313        0.42897708845547
H           -0.96097191953442        3.11467816971063        2.63593961827779

          :  Hamiltonian                  GFN2-xTB          :
         :: total energy             -99.363173599365 Eh    ::
         :: gradient norm              0.001290400520 Eh/a0 ::
         :: HOMO-LUMO gap              1.713188111177 eV    ::
         :: SCC energy              -100.768591929175 Eh    ::
         :: -> dispersion             -0.074525200174 Eh    ::
         :: repulsion energy           1.403925172521 Eh    ::

    * Orbital Energies and Occupations

         #    Occupation            Energy/Eh            Energy/eV
      -------------------------------------------------------------
         1        2.0000           -0.8102564             -22.0482
       ...           ...                  ...                  ...
        78        1.9979           -0.5290257             -14.3955
        79        1.9977           -0.5270943             -14.3430
        80        1.9968           -0.5219697             -14.2035
        81        1.9967           -0.5214786             -14.1902
        82        1.9954           -0.5162583             -14.0481
        83        1.9942           -0.5128090             -13.9542
        84        1.9912           -0.5060996             -13.7717
        85        1.9849           -0.4974777             -13.5371
        86        1.9812           -0.4940435             -13.4436
        87        1.9765           -0.4904452             -13.3457
        88        1.9272           -0.4721387             -12.8475
        89        1.9219           -0.4709727             -12.8158
        90        1.8293           -0.4578119             -12.4577 (HOMO)
        91        0.3348           -0.3948534             -10.7445 (LUMO)
        92        0.0633           -0.3660962              -9.9620
        93        0.0122           -0.3396693              -9.2429
        94        0.0034           -0.3192689              -8.6877
        95        0.0025           -0.3143942              -8.5551
        96        0.0022           -0.3121206              -8.4932
        97        0.0017           -0.3083054              -8.3894
        98        0.0000           -0.1895802              -5.1587
        99        0.0000           -0.1872576              -5.0955
       100                         -0.1332067              -3.6247
       101                         -0.0683493              -1.8599
       ...                                ...                  ...
       171                          0.5743162              15.6279
      -------------------------------------------------------------
                  HL-Gap            0.0629585 Eh            1.7132 eV

     #   Z          covCN         q      C6AA      α(0)
     1   7 N        1.774    -0.267    27.746     7.800
     2   6 C        2.827     0.103    25.718     8.310
     3   6 C        3.908     0.006    20.428     6.424
     4   6 C        2.976     0.012    27.750     8.641
     5   6 C        2.921    -0.074    29.840     8.958
     6   6 C        2.863     0.152    24.697     8.146
     7   8 O        1.706    -0.246    18.082     5.741
     8   6 C        3.643     0.030    20.412     6.495
     9   6 C        2.919    -0.051    29.254     8.870
    10   8 O        0.856    -0.321    20.166     6.021
    11   6 C        2.702     0.176    24.205     8.053
    12   6 C        2.917    -0.027    28.666     8.780
    13   6 C        2.922    -0.048    29.195     8.861
    14   6 C        3.813    -0.065    21.730     6.635
    15   6 C        3.802    -0.072    21.867     6.657
    16   6 C        2.847     0.013    27.713     8.628
    17   7 N        2.729     0.025    20.810     6.775
    18   6 C        3.757    -0.018    20.954     6.526
    19   6 C        3.808    -0.071    21.847     6.654
    20   6 C        2.969     0.001    28.007     8.681
    21   6 C        2.922    -0.048    29.200     8.861
    22   6 C        2.914    -0.067    29.671     8.932
    23   6 C        2.865     0.134    25.066     8.207
    24   8 O        1.706    -0.220    17.647     5.672
    25   6 C        3.645     0.024    20.499     6.507
    26   6 C        2.863     0.134    25.070     8.207
    27   8 O        1.706    -0.222    17.692     5.679
    28   6 C        3.645     0.026    20.468     6.502
    29   6 C        2.919    -0.079    29.980     8.979
    30   6 C        3.702    -0.080    22.185     6.735
    31   6 C        3.853    -0.007    20.665     6.466
    32   6 C        3.756    -0.118    22.811     6.810
    33   6 C        3.755    -0.119    22.840     6.814
    34   1 H        0.926     0.046     2.376     2.410
    35   1 H        0.924     0.052     2.295     2.369
    36   1 H        0.925     0.077     2.008     2.216
    37   1 H        0.924     0.047     2.361     2.403
    38   1 H        0.926     0.056     2.244     2.342
    39   1 H        0.923     0.051     2.306     2.375
    40   1 H        0.923     0.047     2.361     2.403
    41   1 H        0.926     0.049     2.328     2.386
    42   1 H        0.926     0.036     2.497     2.471
    43   1 H        0.925     0.061     2.188     2.313
    44   1 H        0.924     0.054     2.275     2.359
    45   1 H        0.925     0.078     2.005     2.214
    46   1 H        0.923     0.083     1.947     2.182
    47   1 H        0.922     0.007     2.943     2.683
    48   1 H        0.926     0.072     2.063     2.246
    49   1 H        0.924     0.072     2.065     2.247
    50   1 H        0.924     0.067     2.117     2.276
    51   1 H        0.924     0.056     2.251     2.346
    52   1 H        0.924     0.059     2.213     2.326
    53   1 H        0.926     0.046     2.369     2.407
    54   1 H        0.926     0.059     2.205     2.322
    55   1 H        0.924     0.055     2.257     2.349
    56   1 H        0.924     0.057     2.236     2.338
    57   1 H        0.925     0.083     1.945     2.181
    58   1 H        0.925     0.083     1.950     2.184
    59   1 H        0.924     0.050     2.319     2.381
    60   1 H        0.924     0.054     2.274     2.358
    61   1 H        0.926     0.049     2.330     2.387
    62   1 H        0.924     0.086     1.923     2.169
    63   1 H        0.924     0.104     1.752     2.070
    64   1 H        0.925     0.085     1.929     2.172
    65   1 H        0.924     0.038     2.477     2.461
    66   1 H        0.925     0.068     2.112     2.273
    67   1 H        0.925     0.037     2.493     2.469
    68   1 H        0.925     0.051     2.301     2.372
    69   1 H        0.925     0.063     2.169     2.303
    70   1 H        0.925     0.035     2.520     2.482
    71   1 H        0.925     0.055     2.258     2.350
    72   1 H        0.860     0.157     1.353     1.822

Wiberg/Mayer (AO) data.
largest (>0.10) Wiberg bond orders for each atom

     #   Z sym  total        # sym  WBO       # sym  WBO       # sym  WBO
 ---------------------------------------------------------------------------
     1   7 N    3.039 --     2 C    1.956    72 H    0.941
     2   6 C    3.932 --     1 N    1.956     3 C    0.994    47 H    0.901
     3   6 C    3.974 --     2 C    0.994     4 C    0.968    14 C    0.956
                            31 C    0.944
     4   6 C    3.966 --    13 C    1.408     5 C    1.402     3 C    0.968
     5   6 C    3.956 --     4 C    1.402     6 C    1.362    34 H    0.959
     6   6 C    3.913 --     5 C    1.362     9 C    1.321     7 O    1.093
     7   8 O    2.244 --     6 C    1.093     8 C    0.978
     8   6 C    3.934 --     7 O    0.978    36 H    0.977    35 H    0.974
                            37 H    0.974
     9   6 C    3.952 --    12 C    1.474     6 C    1.321    38 H    0.966
    10   8 O    2.030 --    11 C    1.935
    11   6 C    3.826 --    10 O    1.935    40 H    0.944    39 H    0.944
    12   6 C    3.977 --     9 C    1.474    13 C    1.408    41 H    0.968
    13   6 C    3.951 --    12 C    1.408     4 C    1.408    42 H    0.962
    14   6 C    3.979 --    15 C    0.988    44 H    0.971    43 H    0.968
                             3 C    0.956
    15   6 C    3.986 --    16 C    1.061    14 C    0.988    45 H    0.955
                            46 H    0.922
    16   6 C    3.642 --    17 N    1.442    15 C    1.061    48 H    0.956
    17   7 N    3.517 --    16 C    1.442    30 C    0.995    18 C    0.988
    18   6 C    3.955 --    17 N    0.988    50 H    0.968    19 C    0.966
                            49 H    0.963
    19   6 C    3.977 --    20 C    1.008    51 H    0.972    52 H    0.971
                            18 C    0.966
    20   6 C    3.942 --    21 C    1.407    29 C    1.381    19 C    1.008
    21   6 C    3.947 --    22 C    1.418    20 C    1.407    53 H    0.968
    22   6 C    3.957 --    21 C    1.418    23 C    1.382    54 H    0.963
    23   6 C    3.892 --    22 C    1.382    26 C    1.217    24 O    1.113
    24   8 O    2.255 --    23 C    1.113    25 C    0.975
    25   6 C    3.927 --    57 H    0.977    24 O    0.975    55 H    0.972
                            56 H    0.972
    26   6 C    3.896 --    29 C    1.393    23 C    1.217    27 O    1.107
    27   8 O    2.255 --    26 C    1.107    28 C    0.978
    28   6 C    3.930 --    27 O    0.978    58 H    0.977    59 H    0.973
                            60 H    0.973
    29   6 C    3.957 --    26 C    1.393    20 C    1.381    61 H    0.962
    30   6 C    3.946 --    17 N    0.995    64 H    0.977    62 H    0.964
                            63 H    0.954
    31   6 C    3.973 --    33 C    1.008    32 C    1.008    65 H    0.959
                             3 C    0.944
    32   6 C    3.978 --    31 C    1.008    67 H    0.981    68 H    0.981
                            66 H    0.974
    33   6 C    3.980 --    31 C    1.008    70 H    0.983    71 H    0.980
                            69 H    0.975
    34   1 H    0.997 --     5 C    0.959
    35   1 H    0.994 --     8 C    0.974
    36   1 H    0.993 --     8 C    0.977
    37   1 H    0.994 --     8 C    0.974
    38   1 H    0.995 --     9 C    0.966
    39   1 H    0.993 --    11 C    0.944
    40   1 H    0.993 --    11 C    0.944
    41   1 H    0.995 --    12 C    0.968
    42   1 H    0.998 --    13 C    0.962
    43   1 H    0.995 --    14 C    0.968
    44   1 H    0.996 --    14 C    0.971
    45   1 H    0.992 --    15 C    0.955
    46   1 H    0.971 --    15 C    0.922
    47   1 H    0.985 --     2 C    0.901
    48   1 H    0.994 --    16 C    0.956
    49   1 H    0.990 --    18 C    0.963
    50   1 H    0.995 --    18 C    0.968
    51   1 H    0.996 --    19 C    0.972
    52   1 H    0.995 --    19 C    0.971
    53   1 H    0.997 --    21 C    0.968
    54   1 H    0.995 --    22 C    0.963
    55   1 H    0.991 --    25 C    0.972
    56   1 H    0.991 --    25 C    0.972
    57   1 H    0.992 --    25 C    0.977
    58   1 H    0.992 --    28 C    0.977
    59   1 H    0.992 --    28 C    0.973
    60   1 H    0.992 --    28 C    0.973
    61   1 H    0.996 --    29 C    0.962
    62   1 H    0.984 --    30 C    0.964
    63   1 H    0.982 --    30 C    0.954
    64   1 H    0.993 --    30 C    0.977
    65   1 H    0.991 --    31 C    0.959
    66   1 H    0.990 --    32 C    0.974
    67   1 H    0.996 --    32 C    0.981
    68   1 H    0.994 --    32 C    0.981
    69   1 H    0.992 --    33 C    0.975
    70   1 H    0.997 --    33 C    0.983
    71   1 H    0.993 --    33 C    0.980
    72   1 H    0.970 --     1 N    0.941
 ---------------------------------------------------------------------------

molecular dipole:
                 x           y           z       tot (Debye)
 q only:        0.781       0.004      -0.925
   full:        0.862      -0.292      -1.118       3.664

           -------------------------------------------------
          | TOTAL ENERGY              -99.363173599365 Eh   |
          | GRADIENT NORM               0.001290400520 Eh/α |
          | HOMO-LUMO GAP               1.713188111177 eV   |
           -------------------------------------------------

 * finished run on 2024/04/06 at 11:16:16.058
