   * xtb version 6.6.1 (8d0f1dd) compiled by 'conda@1efc2f54142f' on 2023-08-01
          program call               : xtb struc.xyz --opt loose --input .xc1 --gfn2

   ID    Z sym.   atoms
    1    6 C      1, 3, 5-7, 10, 11, 14
    2    7 N      2, 4, 9, 13
    3    8 O      8, 12
    4    1 H      15-25
constraining bond 8 10 to    5.7600000 Å, actual value:    2.7438924 Å

          :  Hamiltonian                  GFN2-xTB          :
 * total energy  :    22.7234052 Eh     change       -0.6650680E-10 Eh
 * total energy  :    -3.5496207 Eh     change       -0.2627303E+02 Eh
 * total energy  :   -21.4772296 Eh     change       -0.1792761E+02 Eh
 * total energy  :   -33.2684400 Eh     change       -0.1179121E+02 Eh
 * total energy  :   -39.5039110 Eh     change       -0.6235471E+01 Eh
 * total energy  :   -41.4903616 Eh     change       -0.1986451E+01 Eh
 * total energy  :   -41.6586569 Eh     change       -0.1682953E+00 Eh
 * total energy  :   -41.6637911 Eh     change       -0.5134152E-02 Eh
 * total energy  :   -41.6781263 Eh     change       -0.1433524E-01 Eh
 * total energy  :   -41.6891191 Eh     change       -0.1099275E-01 Eh
 * total energy  :   -42.1426242 Eh     change       -0.1585405E-02 Eh
 * total energy  :   -42.1436487 Eh     change       -0.1024464E-02 Eh
 * total energy  :   -42.1443933 Eh     change       -0.7446366E-03 Eh
 * total energy  :   -42.1449681 Eh     change       -0.5747222E-03 Eh
 * total energy  :   -42.1452881 Eh     change       -0.3200936E-03 Eh
 * total energy  :   -42.1454392 Eh     change       -0.1510287E-03 Eh
 * total energy  :   -42.1455715 Eh     change       -0.1323294E-03 Eh
 * total energy  :   -42.1456334 Eh     change       -0.6186764E-04 Eh
 * total energy  :   -42.1456826 Eh     change       -0.4919207E-04 Eh
   *** GEOMETRY OPTIMIZATION CONVERGED AFTER 52 ITERATIONS ***

 final structure:
================
25
 xtb: 6.6.1 (8d0f1dd)
C            3.91678138589422        0.45130791751298        0.16420765025999
N            2.77659365855958       -0.23217085042875        0.06214948235383
C            2.66839860329817       -1.57724942941392       -0.02552048101980
N            1.34626898706934       -1.94204430577383       -0.08612776477625
C            0.60179792663900       -0.82607118864770       -0.04126065078682
C            1.46854430248761        0.27537321199155        0.02079608564844
C            0.91056525604879        1.56915589061164       -0.05093950887840
O            1.71834947126612        2.64583009324907       -0.15519238988251
N           -0.45365782071893        1.65476662755619       -0.02915194740762
C           -3.85214291991978        1.22104931752779        0.10931732961141
C           -1.26378443141057        0.62165589127059       -0.00082161053310
O           -2.57696032878796        0.49250392690139        0.06068545669511
N           -0.74618310838825       -0.69773097480906       -0.05330458006087
C           -1.54574613192829       -1.90840911129151       -0.07916709249373
H            3.93032024103570        1.47957806810669        0.46496882894165
H            4.83353000902126       -0.10140416523799        0.16455094839018
H            2.61231210679981        2.39422818950850       -0.42182864272440
H            3.48818110698330       -2.26034669611796       -0.03321745634098
H           -3.70226241020887        2.29972233788469        0.10602084491914
H           -4.40657741090641        0.90030031868783       -0.76826466329365
H           -4.33766493058122        0.89758503899567        1.02516413138442
H           -1.29151342388062       -2.53477518852169        0.77734537804470
H           -1.36107925423786       -2.45545615760177       -1.00511681027373
H           -2.59861510255114       -1.65476339969007       -0.02546439413187
H            1.02497573251732       -2.89439682066904       -0.14865652574500

          :  Hamiltonian                  GFN2-xTB          :
         :: total energy             -42.145682563376 Eh    ::
         :: gradient norm              0.003908963225 Eh/a0 ::
         :: HOMO-LUMO gap              1.424071489465 eV    ::
         :: SCC energy               -42.646404324481 Eh    ::
         :: -> dispersion             -0.022153024381 Eh    ::
         :: repulsion energy           0.500575836195 Eh    ::

    * Orbital Energies and Occupations

         #    Occupation            Energy/Eh            Energy/eV
      -------------------------------------------------------------
         1        2.0000           -0.8843333             -24.0639
       ...           ...                  ...                  ...
        25        2.0000           -0.6632371             -18.0476
        26        2.0000           -0.6555023             -17.8371
        27        2.0000           -0.6505097             -17.7013
        28        2.0000           -0.6391065             -17.3910
        29        2.0000           -0.6315324             -17.1849
        30        2.0000           -0.6259449             -17.0328
        31        1.9999           -0.6060291             -16.4909
        32        1.9998           -0.6000198             -16.3274
        33        1.9998           -0.5938788             -16.1603
        34        1.9994           -0.5785448             -15.7430
        35        1.9973           -0.5550672             -15.1041
        36        1.9943           -0.5432686             -14.7831
        37        1.6655           -0.4760688             -12.9545 (HOMO)
        38        0.3089           -0.4237352             -11.5304 (LUMO)
        39        0.0300           -0.3843715             -10.4593
        40        0.0053           -0.3567678              -9.7081
        41        0.0000           -0.2800781              -7.6213
        42        0.0000           -0.2435464              -6.6272
        43                         -0.1661059              -4.5200
        44                         -0.1563850              -4.2555
        45                         -0.1400184              -3.8101
        46                         -0.1256217              -3.4183
        47                         -0.0522765              -1.4225
        48                         -0.0314314              -0.8553
       ...                                ...                  ...
        67                          0.4917265              13.3806
      -------------------------------------------------------------
                  HL-Gap            0.0523337 Eh            1.4241 eV

     #   Z          covCN         q      C6AA      α(0)
     1   6 C        2.789    -0.124    31.139     9.141
     2   7 N        2.798     0.100    19.519     6.562
     3   6 C        3.041    -0.004    28.091     8.693
     4   7 N        2.769    -0.071    22.612     7.063
     5   6 C        3.041     0.110    25.540     8.289
     6   6 C        3.084    -0.034    28.751     8.790
     7   6 C        2.781     0.230    23.170     7.884
     8   8 O        1.659    -0.324    19.425     5.950
     9   7 N        1.834    -0.250    27.368     7.752
    10   6 C        3.616     0.012    20.861     6.589
    11   6 C        2.726     0.296    21.978     7.675
    12   8 O        1.704    -0.225    17.739     5.687
    13   7 N        2.743    -0.051    22.222     7.001
    14   6 C        3.699    -0.074    22.088     6.722
    15   1 H        0.926     0.076     2.023     2.224
    16   1 H        0.926     0.080     1.983     2.202
    17   1 H        0.805     0.345     0.599     1.216
    18   1 H        0.927     0.101     1.777     2.085
    19   1 H        0.925     0.098     1.803     2.100
    20   1 H        0.925     0.107     1.721     2.052
    21   1 H        0.925     0.108     1.714     2.047
    22   1 H        0.924     0.084     1.942     2.179
    23   1 H        0.924     0.084     1.936     2.176
    24   1 H        0.925     0.113     1.669     2.020
    25   1 H        0.860     0.214     1.037     1.595

Wiberg/Mayer (AO) data.
largest (>0.10) Wiberg bond orders for each atom

     #   Z sym  total        # sym  WBO       # sym  WBO       # sym  WBO
 ---------------------------------------------------------------------------
     1   6 C    3.553 --     2 N    1.309    16 H    0.971    15 H    0.960
                             3 C    0.170
     2   7 N    3.728 --     1 C    1.309     3 C    1.247     6 C    1.073
     3   6 C    3.690 --     2 N    1.247     4 N    1.172    18 H    0.960
                             1 C    0.170
     4   7 N    3.551 --     5 C    1.254     3 C    1.172    25 H    0.925
     5   6 C    3.891 --     6 C    1.265     4 N    1.254    13 N    1.180
     6   6 C    3.892 --     5 C    1.265     7 C    1.254     2 N    1.073
     7   6 C    3.777 --     9 N    1.258     6 C    1.254     8 O    1.158
     8   8 O    2.177 --     7 C    1.158    17 H    0.842
     9   7 N    3.052 --    11 C    1.444     7 C    1.258    12 O    0.109
    10   6 C    3.863 --    19 H    0.979    20 H    0.969    21 H    0.968
                            12 O    0.899
    11   6 C    3.850 --     9 N    1.444    12 O    1.202    13 N    1.067
    12   8 O    2.334 --    11 C    1.202    10 C    0.899     9 N    0.109
    13   7 N    3.501 --     5 C    1.180    11 C    1.067    14 C    0.978
    14   6 C    3.935 --    13 N    0.978    22 H    0.969    23 H    0.969
                            24 H    0.969
    15   1 H    0.994 --     1 C    0.960
    16   1 H    0.992 --     1 C    0.971
    17   1 H    0.879 --     8 O    0.842
    18   1 H    0.989 --     3 C    0.960
    19   1 H    0.990 --    10 C    0.979
    20   1 H    0.985 --    10 C    0.969
    21   1 H    0.985 --    10 C    0.968
    22   1 H    0.988 --    14 C    0.969
    23   1 H    0.988 --    14 C    0.969
    24   1 H    0.987 --    14 C    0.969
    25   1 H    0.954 --     4 N    0.925
 ---------------------------------------------------------------------------

molecular dipole:
                 x           y           z       tot (Debye)
 q only:        0.224      -1.481      -0.166
   full:        0.486      -1.980      -0.174       5.200

           -------------------------------------------------
          | TOTAL ENERGY              -42.145682563376 Eh   |
          | GRADIENT NORM               0.003908963225 Eh/α |
          | HOMO-LUMO GAP               1.424071489465 eV   |
           -------------------------------------------------

 * finished run on 2024/06/05 at 20:00:15.354
