   * xtb version 6.6.1 (8d0f1dd) compiled by 'conda@1efc2f54142f' on 2023-08-01
          program call               : xtb xtbopt.xyz --opt crude --input .xc2 --gfn2

   ID    Z sym.   atoms
    1    6 C      1, 3, 5-7, 10, 11, 14
    2    7 N      2, 4, 9, 13
    3    8 O      8, 12
    4    1 H      15-25
########################################################################
[WARNING] Please study the warnings concerning your input carefully
-1- readin_getIntValue: could not parse ''
########################################################################

          :  Hamiltonian                  GFN2-xTB          :
 * total energy  :   -42.1458028 Eh     change       -0.8455459E-12 Eh
 * total energy  :   -42.1554663 Eh     change       -0.9663532E-02 Eh
 * total energy  :   -42.1633199 Eh     change       -0.7853565E-02 Eh
 * total energy  :   -42.1687488 Eh     change       -0.5428963E-02 Eh
 * total energy  :   -42.1731315 Eh     change       -0.4382680E-02 Eh
 * total energy  :   -42.1763057 Eh     change       -0.3174160E-02 Eh
 * total energy  :   -42.1778558 Eh     change       -0.1550133E-02 Eh
 * total energy  :   -42.1783001 Eh     change       -0.4443307E-03 Eh
   *** GEOMETRY OPTIMIZATION CONVERGED AFTER 8 ITERATIONS ***

 final structure:
================
25
 xtb: 6.6.1 (8d0f1dd)
C            3.76813398410860        0.58570416033754        0.12097695874919
N            2.69304532538258       -0.19084356927830        0.03919296468696
C            2.69430856498758       -1.54362004590250       -0.01704954388719
N            1.40569815614682       -2.01686706519987       -0.05833837119238
C            0.57185281382994       -0.96861658623470       -0.03497205796137
C            1.34799266559272        0.20854792990435        0.00844869142329
C            0.66806087308804        1.43921460088724       -0.02118391573412
O            1.18720500290838        2.64841484582503       -0.07893681510698
N           -0.67419744537360        1.40252093250900        0.00179376388848
C           -3.39023842543139        1.52685878383409        0.08949067458404
C           -1.36371805242522        0.30353094993477        0.00709367250806
O           -2.67188132443777        0.29591363396797        0.05467796857064
N           -0.79085880207342       -0.95590502864113       -0.04450127700177
C           -1.55587177140183       -2.18476897437596       -0.09752373192226
H            3.68476373051421        1.64354049348600        0.25022948958067
H            4.73271522543145        0.12150816645735        0.14496295342727
H            2.14711779589300        2.66719468106171       -0.18126867140502
H            3.56697540898369       -2.15757544423639       -0.01466469332422
H           -2.72181666489908        2.38263367202050        0.07180082732771
H           -4.04684044694042        1.54498269407526       -0.77834858014920
H           -3.98332542181525        1.53558821705982        1.00083330814589
H           -1.31705368746920       -2.81544227245891        0.76022642654008
H           -1.33911452227364       -2.72379930056587       -1.02156363023793
H           -2.61328088348039       -1.93731631608340       -0.07086465759444
H            1.16075941525467       -2.99316061678210       -0.09934013601492

          :  Hamiltonian                  GFN2-xTB          :
         :: total energy             -42.178300126563 Eh    ::
         :: gradient norm              0.007910806835 Eh/a0 ::
         :: HOMO-LUMO gap              1.525371300274 eV    ::
         :: SCC energy               -42.697128874004 Eh    ::
         :: -> dispersion             -0.022431469405 Eh    ::
         :: repulsion energy           0.518781796911 Eh    ::

    * Orbital Energies and Occupations

         #    Occupation            Energy/Eh            Energy/eV
      -------------------------------------------------------------
         1        2.0000           -0.8905956             -24.2343
       ...           ...                  ...                  ...
        25        2.0000           -0.6656259             -18.1126
        26        2.0000           -0.6537222             -17.7887
        27        2.0000           -0.6532421             -17.7756
        28        2.0000           -0.6452884             -17.5592
        29        2.0000           -0.6303725             -17.1533
        30        2.0000           -0.6301711             -17.1478
        31        1.9999           -0.6084241             -16.5561
        32        1.9998           -0.5981779             -16.2772
        33        1.9998           -0.5949975             -16.1907
        34        1.9995           -0.5796290             -15.7725
        35        1.9977           -0.5565023             -15.1432
        36        1.9965           -0.5495686             -14.9545
        37        1.6928           -0.4762074             -12.9583 (HOMO)
        38        0.2756           -0.4201510             -11.4329 (LUMO)
        39        0.0334           -0.3846272             -10.4662
        40        0.0050           -0.3543245              -9.6417
        41        0.0000           -0.2741932              -7.4612
        42        0.0000           -0.1899501              -5.1688
        43                         -0.1568948              -4.2693
        44                         -0.1392866              -3.7902
        45                         -0.1191573              -3.2424
        46                         -0.1069993              -2.9116
        47                         -0.0366708              -0.9979
        48                         -0.0329170              -0.8957
       ...                                ...                  ...
        67                          0.5060315              13.7698
      -------------------------------------------------------------
                  HL-Gap            0.0560564 Eh            1.5254 eV

     #   Z          covCN         q      C6AA      α(0)
     1   6 C        2.791    -0.118    30.973     9.116
     2   7 N        2.796     0.102    19.479     6.555
     3   6 C        3.039    -0.007    28.168     8.705
     4   7 N        2.766    -0.068    22.555     7.054
     5   6 C        3.051     0.106    25.605     8.299
     6   6 C        3.082    -0.037    28.838     8.804
     7   6 C        2.800     0.235    23.086     7.871
     8   8 O        1.663    -0.306    19.111     5.902
     9   7 N        1.842    -0.270    27.849     7.821
    10   6 C        3.648    -0.001    20.926     6.573
    11   6 C        2.789     0.292    22.058     7.693
    12   8 O        1.707    -0.197    17.290     5.614
    13   7 N        2.738    -0.047    22.144     6.989
    14   6 C        3.693    -0.072    22.073     6.722
    15   1 H        0.927     0.064     2.150     2.293
    16   1 H        0.926     0.081     1.972     2.196
    17   1 H        0.805     0.343     0.604     1.221
    18   1 H        0.927     0.101     1.780     2.086
    19   1 H        0.925     0.101     1.774     2.083
    20   1 H        0.925     0.098     1.801     2.099
    21   1 H        0.925     0.099     1.798     2.097
    22   1 H        0.924     0.086     1.915     2.164
    23   1 H        0.924     0.087     1.912     2.163
    24   1 H        0.925     0.114     1.660     2.015
    25   1 H        0.860     0.214     1.035     1.594

Wiberg/Mayer (AO) data.
largest (>0.10) Wiberg bond orders for each atom

     #   Z sym  total        # sym  WBO       # sym  WBO       # sym  WBO
 ---------------------------------------------------------------------------
     1   6 C    3.584 --     2 N    1.324    16 H    0.971    15 H    0.965
                             3 C    0.179
     2   7 N    3.730 --     1 C    1.324     3 C    1.239     6 C    1.071
     3   6 C    3.694 --     2 N    1.239     4 N    1.169    18 H    0.961
                             1 C    0.179
     4   7 N    3.556 --     5 C    1.264     3 C    1.169    25 H    0.925
     5   6 C    3.881 --     4 N    1.264     6 C    1.259    13 N    1.156
     6   6 C    3.891 --     5 C    1.259     7 C    1.250     2 N    1.071
     7   6 C    3.796 --     9 N    1.262     6 C    1.250     8 O    1.180
     8   8 O    2.214 --     7 C    1.180    17 H    0.847
     9   7 N    3.045 --    11 C    1.431     7 C    1.262
    10   6 C    3.878 --    19 H    0.973    20 H    0.970    21 H    0.970
                            12 O    0.928
    11   6 C    3.874 --     9 N    1.431    12 O    1.197    13 N    1.116
    12   8 O    2.342 --    11 C    1.197    10 C    0.928
    13   7 N    3.512 --     5 C    1.156    11 C    1.116    14 C    0.977
    14   6 C    3.932 --    13 N    0.977    24 H    0.970    22 H    0.969
                            23 H    0.969
    15   1 H    0.996 --     1 C    0.965
    16   1 H    0.992 --     1 C    0.971
    17   1 H    0.881 --     8 O    0.847
    18   1 H    0.989 --     3 C    0.961
    19   1 H    0.990 --    10 C    0.973
    20   1 H    0.987 --    10 C    0.970
    21   1 H    0.987 --    10 C    0.970
    22   1 H    0.988 --    14 C    0.969
    23   1 H    0.988 --    14 C    0.969
    24   1 H    0.986 --    14 C    0.970
    25   1 H    0.953 --     4 N    0.925
 ---------------------------------------------------------------------------

molecular dipole:
                 x           y           z       tot (Debye)
 q only:        0.666      -1.235      -0.094
   full:        1.074      -1.775      -0.105       5.280

           -------------------------------------------------
          | TOTAL ENERGY              -42.178300126563 Eh   |
          | GRADIENT NORM               0.007910806835 Eh/α |
          | HOMO-LUMO GAP               1.525371300274 eV   |
           -------------------------------------------------

 * finished run on 2024/06/05 at 20:00:15.675
