   * xtb version 6.6.1 (8d0f1dd) compiled by 'conda@1efc2f54142f' on 2023-08-01
          program call               : xtb struc.xyz --opt loose --input .xc1 --gfn2

   ID    Z sym.   atoms
    1    7 N      1, 17
    2    6 C      2-6, 8, 9, 11-16, 18-23, 25, 26, 28-33
    3    8 O      7, 10, 24, 27
    4    1 H      34-72
constraining bond 9 12 to    4.0000000 Å, actual value:    1.3827240 Å

          :  Hamiltonian                  GFN2-xTB          :
 * total energy  :   -98.1810176 Eh     change       -0.4035485E-08 Eh
 * total energy  :   -98.3637809 Eh     change       -0.1827633E+00 Eh
 * total energy  :   -98.5591949 Eh     change       -0.1954140E+00 Eh
 * total energy  :   -98.7492331 Eh     change       -0.1900382E+00 Eh
 * total energy  :   -98.9326187 Eh     change       -0.1833856E+00 Eh
 * total energy  :   -99.0390217 Eh     change       -0.1064030E+00 Eh
 * total energy  :   -99.0697980 Eh     change       -0.3077637E-01 Eh
 * total energy  :   -99.0915281 Eh     change       -0.2173006E-01 Eh
 * total energy  :   -99.1069620 Eh     change       -0.1543391E-01 Eh
 * total energy  :   -99.1181967 Eh     change       -0.1123463E-01 Eh
 * total energy  :   -99.2895877 Eh     change       -0.5182932E-03 Eh
 * total energy  :   -99.2898634 Eh     change       -0.2757300E-03 Eh
 * total energy  :   -99.2899627 Eh     change       -0.9930238E-04 Eh
 * total energy  :   -99.2900585 Eh     change       -0.9580662E-04 Eh
 * total energy  :   -99.2901528 Eh     change       -0.9425445E-04 Eh
 * total energy  :   -99.2902648 Eh     change       -0.1120692E-03 Eh
 * total energy  :   -99.2903614 Eh     change       -0.9659624E-04 Eh
 * total energy  :   -99.2904261 Eh     change       -0.6462171E-04 Eh
 * total energy  :   -99.2904724 Eh     change       -0.4635044E-04 Eh
   *** GEOMETRY OPTIMIZATION CONVERGED AFTER 84 ITERATIONS ***

 final structure:
================
72
 xtb: 6.6.1 (8d0f1dd)
N           -1.82965131886910        2.85894477285244        2.10875770498763
C           -1.76962710116130        2.12562653388483        1.09925969063086
C           -2.93781366857654        1.82448331376326        0.19599210998704
C           -3.36369651219141        0.36463631443309        0.41596577720238
C           -4.36252108981566       -0.14049177041250       -0.36265620819403
C           -5.06150250176570       -1.38807274529589       -0.37828609236832
O           -5.99302597699351       -1.66024737978095       -1.34312144946498
C           -6.46932197812533       -0.65817967706651       -2.20595095989432
C           -4.90495236350229       -2.39784350574528        0.53426324429503
O           -5.63145067971476       -3.51564413091945        0.44852006885431
C           -5.46730697834636       -4.46563006269244        1.47687373621370
C           -1.82714757530130       -0.60233791781638        2.27528064562816
C           -2.63284715592527       -0.28584301947117        1.42908246841166
C           -2.43314014854627        2.02550731871040       -1.25710408004092
C           -1.48842823659483        0.92200073821094       -1.76482837389557
C           -0.13062203447383        0.99616989799207       -1.17956400681459
N            0.59256433086165       -0.04783460521379       -0.78967722045807
C            1.96058859902424        0.12512544853101       -0.36238573963324
C            2.96429753409748       -0.24099879804309       -1.47244006374971
C            4.36742518038713       -0.04085477630819       -0.97180411440156
C            4.98896544991463        1.19159801832128       -1.08350613221003
C            6.27039538251164        1.38722896319445       -0.59154180948736
C            6.95486642207696        0.35201892373588        0.02830575426993
O            8.19837293490618        0.42719123048257        0.53949311187049
C            8.91198127735288        1.63755567284662        0.43425743932432
C            6.32324578592070       -0.91590735157123        0.15154341988211
O            7.05851378336861       -1.86613603456164        0.76454095921875
C            6.53012450803820       -3.16312745163927        0.90222847164531
C            5.04169393579779       -1.08723526547091       -0.34656700009171
C            0.07630828698800       -1.39501932646117       -0.83299606053710
C           -4.16418747609034        2.74660748672913        0.46746497815152
C           -4.77245957837183        2.47992223062896        1.84288776724512
C           -3.84285784179871        4.23182094704154        0.32701931541245
H           -4.72336551805681        0.54702108483777       -1.11339603120178
H           -6.88489651522477        0.19282637629840       -1.65643270193543
H           -7.26647504718506       -1.13312212723621       -2.77592009455806
H           -5.69749683241728       -0.31116371413175       -2.90236935169582
H           -5.84792349760280       -4.08192031205237        2.42927589391815
H           -6.04646634569489       -5.33882129042616        1.18096242038732
H           -4.41624039742646       -4.74475899622997        1.59802344473078
H           -1.21559841570362       -0.97949797794758        3.04232795663850
H           -4.18795939266066       -2.30316106652683        1.34025665780722
H           -3.29253489997021        2.07034990459992       -1.92604383055114
H           -1.92108687249774        2.98666414151880       -1.31815952066960
H           -1.94197942731811       -0.05401299052211       -1.59706859537971
H           -1.39202691506701        1.06070059767181       -2.84999207147238
H           -0.83977764790021        1.64474868292113        0.73935472907398
H            0.37048191825249        1.95246666780127       -1.19564541258243
H            2.14196833244695       -0.50536990407048        0.51225427030476
H            2.12034614202689        1.16511365906615       -0.07072988104435
H            2.78037653866053        0.39718768436797       -2.33823213144978
H            2.81666585139666       -1.27944315015205       -1.77175343419141
H            4.48120593702007        2.01132506019290       -1.56867054184748
H            6.73095907894542        2.35534597772770       -0.70007631586574
H            8.40927318539627        2.44742283008360        0.97176927024917
H            9.05742908942885        1.92698088669644       -0.61077004673492
H            9.87972559771118        1.44631480209984        0.89381010654888
H            7.30600309625132       -3.74363670044598        1.39748882686485
H            5.62725031032093       -3.16554418069112        1.52168658601326
H            6.30836234693059       -3.61208631040284       -0.07098434786035
H            4.55688734324805       -2.04764154688141       -0.26534503192422
H           -0.17387070318703       -1.68741943854233       -1.85473226590885
H           -0.81735878863022       -1.48110238481331       -0.20940618595837
H            0.82905005282085       -2.07959773739037       -0.45182552615285
H           -4.91874241751958        2.49956669768901       -0.28814557019802
H           -4.05282773059385        2.71804890123977        2.61956983636021
H           -5.07194114934702        1.43968664041537        1.94872457373436
H           -5.65131281429344        3.10446345516815        1.97916516830488
H           -3.11071623747674        4.53323949760777        1.06993159366186
H           -3.47027672717439        4.47644416649000       -0.66463643794550
H           -4.75088468498325        4.80650822691242        0.49198350696348
H           -0.97449344114069        3.00497941662110        2.63570797625626

          :  Hamiltonian                  GFN2-xTB          :
         :: total energy             -99.290472412659 Eh    ::
         :: gradient norm              0.003385553548 Eh/a0 ::
         :: HOMO-LUMO gap              1.392527376843 eV    ::
         :: SCC energy              -100.711030664089 Eh    ::
         :: -> dispersion             -0.073842348759 Eh    ::
         :: repulsion energy           1.419075198233 Eh    ::

    * Orbital Energies and Occupations

         #    Occupation            Energy/Eh            Energy/eV
      -------------------------------------------------------------
         1        2.0000           -0.8133427             -22.1322
       ...           ...                  ...                  ...
        78        1.9988           -0.5298747             -14.4186
        79        1.9986           -0.5272207             -14.3464
        80        1.9985           -0.5257526             -14.3065
        81        1.9978           -0.5199435             -14.1484
        82        1.9974           -0.5170312             -14.0691
        83        1.9971           -0.5156941             -14.0328
        84        1.9964           -0.5122861             -13.9400
        85        1.9941           -0.5042024             -13.7200
        86        1.9909           -0.4973657             -13.5340
        87        1.9805           -0.4852738             -13.2050
        88        1.9464           -0.4689890             -12.7618
        89        1.8581           -0.4528292             -12.3221
        90        1.7369           -0.4419823             -12.0270 (HOMO)
        91        0.4136           -0.3908079             -10.6344 (LUMO)
        92        0.0800           -0.3617829              -9.8446
        93        0.0156           -0.3354087              -9.1269
        94        0.0030           -0.3091957              -8.4136
        95        0.0026           -0.3067364              -8.3467
        96        0.0003           -0.2698098              -7.3419
        97        0.0001           -0.2599247              -7.0729
        98        0.0000           -0.1970529              -5.3621
        99        0.0000           -0.1842250              -5.0130
       100                         -0.1333311              -3.6281
       101                         -0.0796477              -2.1673
       ...                                ...                  ...
       171                          1.2607983              34.3081
      -------------------------------------------------------------
                  HL-Gap            0.0511744 Eh            1.3925 eV

     #   Z          covCN         q      C6AA      α(0)
     1   7 N        1.774    -0.271    27.849     7.815
     2   6 C        2.826     0.102    25.726     8.311
     3   6 C        3.913     0.008    20.378     6.416
     4   6 C        2.948     0.019    27.588     8.615
     5   6 C        2.900    -0.068    29.689     8.934
     6   6 C        2.828     0.115    25.448     8.266
     7   8 O        1.707    -0.247    18.092     5.743
     8   6 C        3.635     0.032    20.403     6.500
     9   6 C        2.803     0.080    26.210     8.387
    10   8 O        1.705    -0.194    17.234     5.605
    11   6 C        3.657     0.020    20.524     6.503
    12   6 C        1.909    -0.104    33.972     9.413
    13   6 C        1.973    -0.027    31.791     9.105
    14   6 C        3.810    -0.064    21.723     6.634
    15   6 C        3.802    -0.068    21.794     6.647
    16   6 C        2.843     0.004    27.924     8.660
    17   7 N        2.729     0.010    21.088     6.820
    18   6 C        3.756    -0.016    20.914     6.521
    19   6 C        3.808    -0.070    21.841     6.653
    20   6 C        2.970    -0.001    28.051     8.688
    21   6 C        2.922    -0.049    29.224     8.865
    22   6 C        2.914    -0.068    29.690     8.935
    23   6 C        2.865     0.133    25.095     8.211
    24   8 O        1.706    -0.224    17.716     5.683
    25   6 C        3.645     0.026    20.478     6.504
    26   6 C        2.863     0.132    25.105     8.213
    27   8 O        1.706    -0.227    17.761     5.690
    28   6 C        3.645     0.028    20.438     6.498
    29   6 C        2.920    -0.080    30.001     8.982
    30   6 C        3.700    -0.071    22.020     6.711
    31   6 C        3.852    -0.007    20.665     6.466
    32   6 C        3.756    -0.118    22.820     6.811
    33   6 C        3.755    -0.118    22.818     6.811
    34   1 H        0.926     0.061     2.188     2.313
    35   1 H        0.924     0.049     2.331     2.388
    36   1 H        0.925     0.079     1.989     2.205
    37   1 H        0.924     0.042     2.420     2.433
    38   1 H        0.924     0.063     2.163     2.300
    39   1 H        0.925     0.087     1.911     2.162
    40   1 H        0.924     0.055     2.258     2.350
    41   1 H        0.928     0.084     1.934     2.175
    42   1 H        0.925     0.048     2.343     2.394
    43   1 H        0.925     0.056     2.245     2.343
    44   1 H        0.924     0.053     2.278     2.360
    45   1 H        0.925     0.065     2.144     2.290
    46   1 H        0.923     0.077     2.007     2.216
    47   1 H        0.922     0.006     2.952     2.687
    48   1 H        0.926     0.069     2.101     2.267
    49   1 H        0.924     0.067     2.118     2.276
    50   1 H        0.924     0.067     2.124     2.279
    51   1 H        0.924     0.055     2.259     2.351
    52   1 H        0.924     0.055     2.263     2.352
    53   1 H        0.926     0.044     2.392     2.419
    54   1 H        0.926     0.058     2.227     2.334
    55   1 H        0.924     0.053     2.279     2.361
    56   1 H        0.924     0.055     2.259     2.350
    57   1 H        0.925     0.081     1.964     2.192
    58   1 H        0.925     0.081     1.970     2.195
    59   1 H        0.924     0.047     2.356     2.400
    60   1 H        0.924     0.051     2.302     2.373
    61   1 H        0.926     0.046     2.376     2.411
    62   1 H        0.924     0.076     2.018     2.222
    63   1 H        0.924     0.079     1.990     2.206
    64   1 H        0.925     0.080     1.979     2.200
    65   1 H        0.924     0.034     2.534     2.489
    66   1 H        0.925     0.070     2.089     2.260
    67   1 H        0.925     0.034     2.536     2.490
    68   1 H        0.925     0.050     2.318     2.381
    69   1 H        0.925     0.061     2.191     2.315
    70   1 H        0.925     0.034     2.536     2.491
    71   1 H        0.925     0.054     2.275     2.359
    72   1 H        0.860     0.156     1.358     1.826

Wiberg/Mayer (AO) data.
largest (>0.10) Wiberg bond orders for each atom

     #   Z sym  total        # sym  WBO       # sym  WBO       # sym  WBO
 ---------------------------------------------------------------------------
     1   7 N    3.038 --     2 C    1.958    72 H    0.942
     2   6 C    3.928 --     1 N    1.958     3 C    0.992    47 H    0.901
     3   6 C    3.976 --     2 C    0.992    14 C    0.959    31 C    0.945
                             4 C    0.942
     4   6 C    3.876 --     5 C    1.586    13 C    1.153     3 C    0.942
     5   6 C    3.936 --     4 C    1.586     6 C    1.183    34 H    0.947
     6   6 C    3.857 --     9 C    1.478     5 C    1.183     7 O    1.059
     7   8 O    2.194 --     6 C    1.059     8 C    0.984
     8   6 C    3.936 --     7 O    0.984    36 H    0.975    35 H    0.973
                            37 H    0.972
     9   6 C    3.794 --     6 C    1.478    10 O    1.149    42 H    0.955
    10   8 O    2.277 --     9 C    1.149    11 C    0.974
    11   6 C    3.924 --    39 H    0.977    40 H    0.974    10 O    0.974
                            38 H    0.972
    12   6 C    3.898 --    13 C    2.736    41 H    0.970
    13   6 C    3.962 --    12 C    2.736     4 C    1.153
    14   6 C    3.970 --    15 C    0.984    44 H    0.971    43 H    0.969
                             3 C    0.959
    15   6 C    3.988 --    16 C    1.058    14 C    0.984    45 H    0.961
                            46 H    0.929
    16   6 C    3.580 --    17 N    1.395    15 C    1.058    48 H    0.957
    17   7 N    3.471 --    16 C    1.395    30 C    0.998    18 C    0.989
    18   6 C    3.956 --    17 N    0.989    50 H    0.968    19 C    0.967
                            49 H    0.964
    19   6 C    3.977 --    20 C    1.007    51 H    0.972    52 H    0.971
                            18 C    0.967
    20   6 C    3.947 --    21 C    1.412    29 C    1.379    19 C    1.007
    21   6 C    3.953 --    22 C    1.415    20 C    1.412    53 H    0.968
    22   6 C    3.961 --    21 C    1.415    23 C    1.386    54 H    0.963
    23   6 C    3.899 --    22 C    1.386    26 C    1.222    24 O    1.108
    24   8 O    2.255 --    23 C    1.108    25 C    0.976
    25   6 C    3.929 --    57 H    0.977    24 O    0.976    56 H    0.973
                            55 H    0.973
    26   6 C    3.902 --    29 C    1.397    23 C    1.222    27 O    1.101
    27   8 O    2.254 --    26 C    1.101    28 C    0.979
    28   6 C    3.933 --    27 O    0.979    58 H    0.977    59 H    0.974
                            60 H    0.974
    29   6 C    3.961 --    26 C    1.397    20 C    1.379    61 H    0.963
    30   6 C    3.958 --    17 N    0.998    64 H    0.978    62 H    0.968
                            63 H    0.961
    31   6 C    3.973 --    33 C    1.009    32 C    1.008    65 H    0.959
                             3 C    0.945
    32   6 C    3.981 --    31 C    1.008    68 H    0.982    67 H    0.982
                            66 H    0.974
    33   6 C    3.984 --    31 C    1.009    70 H    0.983    71 H    0.981
                            69 H    0.977
    34   1 H    0.995 --     5 C    0.947
    35   1 H    0.992 --     8 C    0.973
    36   1 H    0.993 --     8 C    0.975
    37   1 H    0.993 --     8 C    0.972
    38   1 H    0.987 --    11 C    0.972
    39   1 H    0.992 --    11 C    0.977
    40   1 H    0.991 --    11 C    0.974
    41   1 H    0.992 --    12 C    0.970
    42   1 H    0.998 --     9 C    0.955
    43   1 H    0.995 --    14 C    0.969
    44   1 H    0.996 --    14 C    0.971
    45   1 H    0.995 --    15 C    0.961
    46   1 H    0.968 --    15 C    0.929
    47   1 H    0.988 --     2 C    0.901
    48   1 H    0.995 --    16 C    0.957
    49   1 H    0.990 --    18 C    0.964
    50   1 H    0.994 --    18 C    0.968
    51   1 H    0.996 --    19 C    0.972
    52   1 H    0.996 --    19 C    0.971
    53   1 H    0.997 --    21 C    0.968
    54   1 H    0.995 --    22 C    0.963
    55   1 H    0.992 --    25 C    0.973
    56   1 H    0.992 --    25 C    0.973
    57   1 H    0.993 --    25 C    0.977
    58   1 H    0.993 --    28 C    0.977
    59   1 H    0.994 --    28 C    0.974
    60   1 H    0.993 --    28 C    0.974
    61   1 H    0.997 --    29 C    0.963
    62   1 H    0.986 --    30 C    0.968
    63   1 H    0.986 --    30 C    0.961
    64   1 H    0.994 --    30 C    0.978
    65   1 H    0.994 --    31 C    0.959
    66   1 H    0.992 --    32 C    0.974
    67   1 H    0.997 --    32 C    0.982
    68   1 H    0.995 --    32 C    0.982
    69   1 H    0.994 --    33 C    0.977
    70   1 H    0.998 --    33 C    0.983
    71   1 H    0.994 --    33 C    0.981
    72   1 H    0.971 --     1 N    0.942
 ---------------------------------------------------------------------------

molecular dipole:
                 x           y           z       tot (Debye)
 q only:        0.158      -0.470      -0.642
   full:        0.520      -0.494      -0.744       2.628

           -------------------------------------------------
          | TOTAL ENERGY              -99.290472412659 Eh   |
          | GRADIENT NORM               0.003385553548 Eh/α |
          | HOMO-LUMO GAP               1.392527376843 eV   |
           -------------------------------------------------

 * finished run on 2024/04/06 at 11:12:57.042
