   * xtb version 6.6.1 (8d0f1dd) compiled by 'conda@1efc2f54142f' on 2023-08-01
          program call               : xtb xtbopt.xyz --opt crude --input .xc2 --gfn2

   ID    Z sym.   atoms
    1    6 C      1, 3, 5-7, 10, 11, 14
    2    7 N      2, 4, 9, 13
    3    8 O      8, 12
    4    1 H      15-25
########################################################################
[WARNING] Please study the warnings concerning your input carefully
-1- readin_getIntValue: could not parse ''
########################################################################

          :  Hamiltonian                  GFN2-xTB          :
 * total energy  :   -41.0152593 Eh     change        0.7105427E-14 Eh
 * total energy  :   -42.1679432 Eh     change       -0.1152684E+01 Eh
 * total energy  :   -42.1767294 Eh     change       -0.8786203E-02 Eh
 * total energy  :   -42.1796546 Eh     change       -0.2925177E-02 Eh
 * total energy  :   -42.1803413 Eh     change       -0.6867540E-03 Eh
 * total energy  :   -42.1810847 Eh     change       -0.7433423E-03 Eh
 * total energy  :   -42.1815385 Eh     change       -0.4538219E-03 Eh
 * total energy  :   -42.1818315 Eh     change       -0.2929990E-03 Eh
 * total energy  :   -42.1819898 Eh     change       -0.1582768E-03 Eh
   *** GEOMETRY OPTIMIZATION CONVERGED AFTER 9 ITERATIONS ***

 final structure:
================
25
 xtb: 6.6.1 (8d0f1dd)
C            3.18245236619519        1.04911881904035        0.26868572600580
N            2.22684501668781        0.02142232315604       -0.00814232057149
C            2.45805560915062       -1.35134094011644        0.08642945243072
N            1.44688522220344       -2.06925164379621       -0.18797673052917
C            0.39007641990799       -1.18328213425974       -0.60298791133505
C            0.95708492504797        0.17685569471766       -0.37781750750645
C            0.11077925937296        1.34921659380481       -0.27738589818647
O            0.51462650478628        2.49261300022918       -0.26141068787398
N           -1.22796836961084        1.01247106759513       -0.15280270392039
C           -2.19036008851627        2.09238332786711       -0.07220501416118
C           -1.73491666293877       -0.26449595219030        0.16036640403600
O           -2.87676479460088       -0.38678711719784        0.51973076463746
N           -0.87634328545919       -1.33151778171142        0.06477035241419
C           -1.37123368609502       -2.66620151836997        0.28930496832192
H            3.75749235214470        0.79247786042039        1.15849450793534
H            3.87408739793313        1.15090600880658       -0.57226677103843
H            2.66740550588433        2.00084804358091        0.40680242140204
H            3.41292054997267       -1.74402668926453        0.38657535188177
H           -1.71038807473699        3.00992990621996       -0.40604139494430
H           -3.05120237395767        1.85208000400362       -0.69726094385850
H           -2.54904744402785        2.21497719751321        0.95253177175733
H           -0.61212097009632       -3.24086303425557        0.81984461767792
H           -1.58712800834083       -3.16929376284895       -0.65728159432849
H           -2.28616897145637       -2.59941030793602        0.87525965940364
H            0.23536311464646       -1.39059042341100       -1.68404490175045

          :  Hamiltonian                  GFN2-xTB          :
         :: total energy             -42.181989779353 Eh    ::
         :: gradient norm              0.005345254140 Eh/a0 ::
         :: HOMO-LUMO gap              1.446928976678 eV    ::
         :: SCC energy               -42.681968944843 Eh    ::
         :: -> dispersion             -0.022573007514 Eh    ::
         :: repulsion energy           0.499815792088 Eh    ::

    * Orbital Energies and Occupations

         #    Occupation            Energy/Eh            Energy/eV
      -------------------------------------------------------------
         1        2.0000           -0.9098900             -24.7594
       ...           ...                  ...                  ...
        25        1.9997           -0.6747661             -18.3613
        26        1.9994           -0.6617957             -18.0084
        27        1.9991           -0.6569944             -17.8777
        28        1.9988           -0.6512752             -17.7221
        29        1.9982           -0.6454688             -17.5641
        30        1.9953           -0.6301191             -17.1464
        31        1.9936           -0.6252666             -17.0144
        32        1.9909           -0.6197040             -16.8630
        33        1.9708           -0.6010790             -16.3562
        34        1.9462           -0.5912257             -16.0881
        35        1.9283           -0.5865281             -15.9602
        36        1.9089           -0.5825707             -15.8526
        37        1.7974           -0.5689645             -15.4823 (HOMO)
        38        0.4718           -0.5157908             -14.0354 (LUMO)
        39        0.0019           -0.4246369             -11.5550
        40        0.0002           -0.3911198             -10.6429
        41        0.0000           -0.3450492              -9.3893
        42                         -0.2014805              -5.4826
        43                         -0.1759687              -4.7884
        44                         -0.1573761              -4.2824
        45                         -0.1526745              -4.1545
        46                         -0.0786054              -2.1390
        47                         -0.0769766              -2.0946
        48                         -0.0467172              -1.2712
       ...                                ...                  ...
        67                          0.5099071              13.8753
      -------------------------------------------------------------
                  HL-Gap            0.0531737 Eh            1.4469 eV

     #   Z          covCN         q      C6AA      α(0)
     1   6 C        3.690    -0.087    22.353     6.766
     2   7 N        2.788     0.066    20.085     6.656
     3   6 C        3.059     0.111    25.500     8.281
     4   7 N        1.868    -0.185    25.827     7.533
     5   6 C        3.924     0.109    18.745     6.153
     6   6 C        3.065     0.022    27.461     8.593
     7   6 C        2.762     0.269    22.463     7.762
     8   8 O        0.858    -0.336    20.437     6.061
     9   7 N        2.745    -0.076    22.721     7.080
    10   6 C        3.707    -0.061    21.814     6.676
    11   6 C        2.714     0.317    21.614     7.610
    12   8 O        0.860    -0.334    20.408     6.057
    13   7 N        2.737    -0.069    22.587     7.059
    14   6 C        3.698    -0.070    22.011     6.710
    15   1 H        0.925     0.114     1.663     2.017
    16   1 H        0.924     0.123     1.589     1.971
    17   1 H        0.924     0.132     1.523     1.930
    18   1 H        0.926     0.126     1.566     1.957
    19   1 H        0.925     0.119     1.620     1.991
    20   1 H        0.924     0.117     1.635     2.000
    21   1 H        0.924     0.117     1.639     2.002
    22   1 H        0.925     0.114     1.667     2.019
    23   1 H        0.924     0.106     1.731     2.058
    24   1 H        0.925     0.127     1.556     1.951
    25   1 H        0.921     0.130     1.532     1.936

Wiberg/Mayer (AO) data.
largest (>0.10) Wiberg bond orders for each atom

     #   Z sym  total        # sym  WBO       # sym  WBO       # sym  WBO
 ---------------------------------------------------------------------------
     1   6 C    3.908 --     2 N    1.000    15 H    0.957    17 H    0.956
                            16 H    0.936
     2   7 N    3.607 --     6 C    1.368     3 C    1.104     1 C    1.000
     3   6 C    3.913 --     4 N    1.759     2 N    1.104    18 H    0.947
     4   7 N    2.948 --     3 C    1.759     5 C    1.015
     5   6 C    3.965 --     4 N    1.015     6 C    1.009    13 N    0.973
                            25 H    0.864
     6   6 C    3.686 --     2 N    1.368     7 C    1.063     5 C    1.009
     7   6 C    3.931 --     8 O    1.663     9 N    1.119     6 C    1.063
     8   8 O    1.956 --     7 C    1.663     9 N    0.144
     9   7 N    3.464 --     7 C    1.119    11 C    1.047    10 C    0.985
                             8 O    0.144
    10   6 C    3.874 --     9 N    0.985    19 H    0.962    20 H    0.945
                            21 H    0.937
    11   6 C    3.956 --    12 O    1.678    13 N    1.149     9 N    1.047
    12   8 O    1.989 --    11 C    1.678    13 N    0.136
    13   7 N    3.340 --    11 C    1.149    14 C    0.991     5 C    0.973
                            12 O    0.136
    14   6 C    3.879 --    13 N    0.991    24 H    0.957    22 H    0.951
                            23 H    0.938
    15   1 H    0.980 --     1 C    0.957
    16   1 H    0.970 --     1 C    0.936
    17   1 H    0.979 --     1 C    0.956
    18   1 H    0.982 --     3 C    0.947
    19   1 H    0.979 --    10 C    0.962
    20   1 H    0.963 --    10 C    0.945
    21   1 H    0.956 --    10 C    0.937
    22   1 H    0.965 --    14 C    0.951
    23   1 H    0.952 --    14 C    0.938
    24   1 H    0.976 --    14 C    0.957
    25   1 H    0.929 --     5 C    0.864
 ---------------------------------------------------------------------------

molecular dipole:
                 x           y           z       tot (Debye)
 q only:        1.737      -0.833      -0.211
   full:        2.010      -0.702      -0.384       5.499

           -------------------------------------------------
          | TOTAL ENERGY              -42.181989779353 Eh   |
          | GRADIENT NORM               0.005345254140 Eh/α |
          | HOMO-LUMO GAP               1.446928976678 eV   |
           -------------------------------------------------

 * finished run on 2024/06/05 at 19:59:13.810
