   * xtb version 6.6.1 (8d0f1dd) compiled by 'conda@1efc2f54142f' on 2023-08-01
          program call               : xtb xtbopt.xyz --opt crude --input .xc2 --gfn2

   ID    Z sym.   atoms
    1    7 N      1, 17
    2    6 C      2-6, 8, 9, 11-16, 18-23, 25, 26, 28-33
    3    8 O      7, 10, 24, 27
    4    1 H      34-72

          :  Hamiltonian                  GFN2-xTB          :
 * total energy  :   -99.3699111 Eh     change       -0.4718004E-11 Eh
   *** GEOMETRY OPTIMIZATION CONVERGED AFTER 1 ITERATIONS ***

 final structure:
================
72
 xtb: 6.6.1 (8d0f1dd)
N           -2.81844777989474        3.02065774404536        2.56558586355823
C           -2.16069472041726        2.81389766738219        1.47505563871056
C           -2.59596967055281        3.25153595251942        0.21922282434186
C           -3.80294137229287       -0.42287746024408        0.64124744386422
C           -4.62130005738771       -0.85870789289178       -0.39117676029623
C           -5.11300216395598       -2.15792123830371       -0.40125467967298
O           -5.91663503553354       -2.68567436315319       -1.34333569590922
C           -6.35971398529990       -1.87781850357410       -2.40840084880575
C           -4.76724394270889       -3.04051569079741        0.66127576946219
O           -5.29838972710683       -4.27463593651930        0.57608272261674
C           -5.06486069105670       -5.20051674195212        1.61126712888014
C           -3.93986908823749       -2.58502712676217        1.67979651621704
C           -3.46122418569404       -1.28384666684130        1.66819485743794
C           -1.72722740902841        2.99645491495418       -0.97705200751872
C           -1.13338873883405        1.62196853942307       -0.97386086245211
C            0.14917138256293        1.38417389279352       -0.64336226416861
N            0.74665542563180        0.17097415278834       -0.54350960710717
C            2.14896904801432        0.07542029158506       -0.24507267875520
C            3.02748749617568       -0.07183876175973       -1.50751738732404
C            4.47490413764430        0.00614468061874       -1.12000119464928
C            5.19263959476852        1.18306831223415       -1.27789088205582
C            6.51222003971649        1.27381463095037       -0.86561677466885
C            7.14340792960317        0.18855583814483       -0.27267280547599
O            8.40777813699011        0.16664180876296        0.18054414587461
C            9.19567632284342        1.33226851187743        0.08805041819442
C            6.41789820630919       -1.02696669685906       -0.11099178941486
O            7.10520063460872       -2.02936571933777        0.46672778271224
C            6.47501897574261       -3.27088471228510        0.67484212405739
C            5.10019878021186       -1.09347208727325       -0.53682826445586
C            0.03417463798830       -1.02657323246151       -0.90887017594120
C           -3.85009866722012        4.04882720738396        0.05893520438537
C           -5.06952655032869        3.31824571586081        0.62952969098912
C           -3.69029027550895        5.40629144740730        0.75927280195602
H           -4.88609462967824       -0.17745569293083       -1.18371151117877
H           -6.92519658645333       -1.01355300372023       -2.04712796343422
H           -7.01461026130642       -2.51264280061395       -3.00332452323976
H           -5.52427503760950       -1.53681897386268       -3.02798779817726
H           -5.44428552570596       -4.83302740578762        2.57014338038155
H           -5.61052297027281       -6.09898212094592        1.32758061229556
H           -4.00014124845564       -5.43688095022049        1.70635495340402
H           -3.67409871310455       -3.23861707310367        2.49520811488757
H           -2.82711678656515       -0.94171391141346        2.47146693659993
H           -2.32109855144926        3.13588668758167       -1.88552395134506
H           -0.92320070734489        3.74422512812774       -0.99550164677580
H           -3.44819861996570        0.59610017334622        0.64510504967469
H           -1.81062612180136        0.81553789482651       -1.20386504791672
H           -1.20147228269488        2.27819965434260        1.48062347243533
H            0.79621766775321        2.21918592977788       -0.40757585179809
H            2.31643955893461       -0.78330077228898        0.41186512066241
H            2.45923945331402        0.97599160436862        0.29074611815550
H            2.78109726045079        0.73196936141714       -2.20344741977061
H            2.81237964428991       -1.02595763719566       -1.99197851030531
H            4.72501016972625        2.04165831227943       -1.73450746879203
H            7.04510414701095        2.19936274467707       -1.01015663620602
H            8.74186079286555        2.16536749615529        0.63288508726544
H            9.36018551685781        1.62210768193585       -0.95412142760425
H           10.14921551925776        1.07731417885127        0.54658404054702
H            7.22314685561419       -3.90218634327729        1.14982407755059
H            5.60955407275368       -3.17454937195690        1.33794967750910
H            6.16413363918476       -3.72622338128024       -0.27011678939929
H            4.54469252672590       -2.01133462682764       -0.42436392229669
H           -0.29147839511992       -0.98896021898164       -1.95228638322916
H           -0.84962908759379       -1.15280443943741       -0.27674701217397
H            0.68222416113747       -1.88974288140925       -0.77644594855350
H           -4.01856457979113        4.23156949628504       -1.00852748899756
H           -4.91977757310791        3.13810683284587        1.69102033430571
H           -5.22201391295859        2.36551080499070        0.12767143513808
H           -5.95938410494802        3.92821942263823        0.49560243101297
H           -3.52656826349643        5.24967537522610        1.82138596810392
H           -2.84791987427486        5.95569822180557        0.34657574053606
H           -4.59185184814854        5.99678133216532        0.62335686190670
H           -2.40643639494531        2.68812431630201        3.42841647655720

          :  Hamiltonian                  GFN2-xTB          :
         :: total energy             -99.369911054026 Eh    ::
         :: gradient norm              0.003647419503 Eh/a0 ::
         :: HOMO-LUMO gap              0.664473189111 eV    ::
         :: SCC energy              -100.774993667553 Eh    ::
         :: -> dispersion             -0.067002819550 Eh    ::
         :: repulsion energy           1.404377918021 Eh    ::

    * Orbital Energies and Occupations

         #    Occupation            Energy/Eh            Energy/eV
      -------------------------------------------------------------
         1        2.0000           -0.8109412             -22.0668
       ...           ...                  ...                  ...
        78        1.9971           -0.5293610             -14.4046
        79        1.9965           -0.5263809             -14.3236
        80        1.9952           -0.5211372             -14.1809
        81        1.9949           -0.5201230             -14.1533
        82        1.9943           -0.5183689             -14.1055
        83        1.9938           -0.5172728             -14.0757
        84        1.9902           -0.5098794             -13.8745
        85        1.9672           -0.4905443             -13.3484
        86        1.9671           -0.4904894             -13.3469
        87        1.8391           -0.4643030             -12.6343
        88        1.7852           -0.4592646             -12.4972
        89        1.7793           -0.4587794             -12.4840
        90        1.6706           -0.4514432             -12.2844 (HOMO)
        91        1.0408           -0.4270243             -11.6199 (LUMO)
        92        0.0018           -0.3147764              -8.5655
        93        0.0016           -0.3131610              -8.5215
        94        0.0015           -0.3121304              -8.4935
        95        0.0014           -0.3104013              -8.4464
        96        0.0004           -0.2923882              -7.9563
        97        0.0002           -0.2780710              -7.5667
        98        0.0000           -0.1893313              -5.1520
        99        0.0000           -0.1853669              -5.0441
       100                         -0.1079157              -2.9365
       101                         -0.0632828              -1.7220
       ...                                ...                  ...
       171                          0.5791484              15.7594
      -------------------------------------------------------------
                  HL-Gap            0.0244189 Eh            0.6645 eV

     #   Z          covCN         q      C6AA      α(0)
     1   7 N        1.780    -0.285    28.218     7.867
     2   6 C        2.821     0.073    26.357     8.412
     3   6 C        2.958     0.011    27.779     8.645
     4   6 C        2.917    -0.040    29.002     8.831
     5   6 C        2.915    -0.068    29.684     8.934
     6   6 C        2.863     0.135    25.048     8.204
     7   8 O        1.706    -0.220    17.658     5.674
     8   6 C        3.644     0.026    20.478     6.504
     9   6 C        2.864     0.136    25.034     8.201
    10   8 O        1.706    -0.219    17.644     5.671
    11   6 C        3.645     0.025    20.491     6.506
    12   6 C        2.914    -0.066    29.635     8.927
    13   6 C        2.917    -0.037    28.924     8.819
    14   6 C        3.811    -0.062    21.689     6.629
    15   6 C        2.893    -0.067    29.676     8.932
    16   6 C        2.844     0.010    27.798     8.641
    17   7 N        2.732    -0.037    21.966     6.961
    18   6 C        3.752    -0.008    20.785     6.501
    19   6 C        3.807    -0.071    21.860     6.656
    20   6 C        2.969     0.007    27.851     8.656
    21   6 C        2.922    -0.044    29.104     8.847
    22   6 C        2.913    -0.065    29.629     8.926
    23   6 C        2.864     0.136    25.037     8.202
    24   8 O        1.706    -0.215    17.576     5.660
    25   6 C        3.645     0.023    20.520     6.510
    26   6 C        2.862     0.135    25.042     8.203
    27   8 O        1.706    -0.219    17.630     5.669
    28   6 C        3.645     0.026    20.480     6.504
    29   6 C        2.919    -0.077    29.929     8.971
    30   6 C        3.698    -0.060    21.821     6.681
    31   6 C        3.853    -0.003    20.605     6.456
    32   6 C        3.756    -0.114    22.732     6.798
    33   6 C        3.758    -0.111    22.666     6.788
    34   1 H        0.926     0.050     2.317     2.380
    35   1 H        0.924     0.057     2.238     2.339
    36   1 H        0.925     0.083     1.948     2.183
    37   1 H        0.924     0.053     2.289     2.366
    38   1 H        0.924     0.058     2.221     2.330
    39   1 H        0.925     0.083     1.946     2.182
    40   1 H        0.924     0.054     2.268     2.355
    41   1 H        0.926     0.057     2.239     2.340
    42   1 H        0.926     0.047     2.353     2.399
    43   1 H        0.924     0.064     2.153     2.295
    44   1 H        0.923     0.067     2.114     2.274
    45   1 H        0.926     0.050     2.318     2.381
    46   1 H        0.926     0.047     2.363     2.404
    47   1 H        0.923     0.014     2.819     2.626
    48   1 H        0.925     0.052     2.291     2.367
    49   1 H        0.924     0.057     2.233     2.337
    50   1 H        0.924     0.060     2.195     2.317
    51   1 H        0.924     0.056     2.249     2.345
    52   1 H        0.924     0.056     2.252     2.347
    53   1 H        0.926     0.052     2.290     2.367
    54   1 H        0.926     0.061     2.183     2.311
    55   1 H        0.924     0.057     2.231     2.336
    56   1 H        0.924     0.060     2.204     2.322
    57   1 H        0.925     0.085     1.932     2.174
    58   1 H        0.925     0.084     1.941     2.178
    59   1 H        0.924     0.052     2.298     2.371
    60   1 H        0.924     0.056     2.250     2.346
    61   1 H        0.926     0.051     2.309     2.376
    62   1 H        0.924     0.064     2.155     2.296
    63   1 H        0.924     0.064     2.154     2.295
    64   1 H        0.925     0.068     2.113     2.273
    65   1 H        0.924     0.044     2.402     2.423
    66   1 H        0.925     0.076     2.018     2.222
    67   1 H        0.925     0.037     2.490     2.467
    68   1 H        0.925     0.055     2.262     2.352
    69   1 H        0.925     0.069     2.100     2.266
    70   1 H        0.925     0.041     2.430     2.438
    71   1 H        0.925     0.058     2.221     2.331
    72   1 H        0.860     0.152     1.387     1.845

Wiberg/Mayer (AO) data.
largest (>0.10) Wiberg bond orders for each atom

     #   Z sym  total        # sym  WBO       # sym  WBO       # sym  WBO
 ---------------------------------------------------------------------------
     1   7 N    2.632 --     2 C    1.619    72 H    0.945
     2   6 C    3.916 --     1 N    1.619     3 C    1.323    47 H    0.922
     3   6 C    3.482 --     2 C    1.323    31 C    1.030    14 C    1.017
     4   6 C    3.932 --    13 C    1.424     5 C    1.416    45 H    0.962
     5   6 C    3.952 --     4 C    1.416     6 C    1.380    34 H    0.963
     6   6 C    3.879 --     5 C    1.380     9 C    1.215     7 O    1.110
     7   8 O    2.247 --     6 C    1.110     8 C    0.977
     8   6 C    3.928 --     7 O    0.977    36 H    0.976    37 H    0.972
                            35 H    0.972
     9   6 C    3.880 --    12 C    1.379     6 C    1.215    10 O    1.111
    10   8 O    2.247 --     9 C    1.111    11 C    0.976
    11   6 C    3.926 --    39 H    0.976    10 O    0.976    40 H    0.971
                            38 H    0.971
    12   6 C    3.951 --    13 C    1.418     9 C    1.379    41 H    0.963
    13   6 C    3.936 --     4 C    1.424    12 C    1.418    42 H    0.969
    14   6 C    3.978 --    15 C    1.019     3 C    1.017    43 H    0.953
                            44 H    0.931
    15   6 C    3.788 --    16 C    1.661    14 C    1.019    46 H    0.962
    16   6 C    3.927 --    15 C    1.661    17 N    1.220    48 H    0.954
    17   7 N    3.368 --    16 C    1.220    30 C    1.007    18 C    1.006
    18   6 C    3.960 --    17 N    1.006    50 H    0.968    49 H    0.965
                            19 C    0.961
    19   6 C    3.972 --    20 C    1.014    51 H    0.973    52 H    0.968
                            18 C    0.961
    20   6 C    3.927 --    21 C    1.395    29 C    1.380    19 C    1.014
    21   6 C    3.931 --    22 C    1.422    20 C    1.395    53 H    0.967
    22   6 C    3.949 --    21 C    1.422    23 C    1.375    54 H    0.962
    23   6 C    3.875 --    22 C    1.375    26 C    1.208    24 O    1.118
    24   8 O    2.249 --    23 C    1.118    25 C    0.974
    25   6 C    3.924 --    57 H    0.976    24 O    0.974    55 H    0.972
                            56 H    0.971
    26   6 C    3.882 --    29 C    1.391    23 C    1.208    27 O    1.111
    27   8 O    2.250 --    26 C    1.111    28 C    0.977
    28   6 C    3.929 --    27 O    0.977    58 H    0.976    59 H    0.972
                            60 H    0.972
    29   6 C    3.951 --    26 C    1.391    20 C    1.380    61 H    0.962
    30   6 C    3.965 --    17 N    1.007    64 H    0.980    62 H    0.969
                            63 H    0.968
    31   6 C    3.967 --     3 C    1.030    32 C    0.978    33 C    0.965
                            65 H    0.959
    32   6 C    3.946 --    67 H    0.984    68 H    0.979    31 C    0.978
                            66 H    0.968
    33   6 C    3.942 --    70 H    0.985    71 H    0.977    69 H    0.976
                            31 C    0.965
    34   1 H    0.996 --     5 C    0.963
    35   1 H    0.990 --     8 C    0.972
    36   1 H    0.992 --     8 C    0.976
    37   1 H    0.990 --     8 C    0.972
    38   1 H    0.990 --    11 C    0.971
    39   1 H    0.992 --    11 C    0.976
    40   1 H    0.990 --    11 C    0.971
    41   1 H    0.995 --    12 C    0.963
    42   1 H    0.997 --    13 C    0.969
    43   1 H    0.983 --    14 C    0.953
    44   1 H    0.961 --    14 C    0.931
    45   1 H    0.996 --     4 C    0.962
    46   1 H    0.996 --    15 C    0.962
    47   1 H    0.961 --     2 C    0.922
    48   1 H    0.997 --    16 C    0.954
    49   1 H    0.990 --    18 C    0.965
    50   1 H    0.994 --    18 C    0.968
    51   1 H    0.995 --    19 C    0.973
    52   1 H    0.994 --    19 C    0.968
    53   1 H    0.996 --    21 C    0.967
    54   1 H    0.994 --    22 C    0.962
    55   1 H    0.990 --    25 C    0.972
    56   1 H    0.989 --    25 C    0.971
    57   1 H    0.992 --    25 C    0.976
    58   1 H    0.992 --    28 C    0.976
    59   1 H    0.991 --    28 C    0.972
    60   1 H    0.991 --    28 C    0.972
    61   1 H    0.996 --    29 C    0.962
    62   1 H    0.984 --    30 C    0.969
    63   1 H    0.985 --    30 C    0.968
    64   1 H    0.995 --    30 C    0.980
    65   1 H    0.988 --    31 C    0.959
    66   1 H    0.988 --    32 C    0.968
    67   1 H    0.996 --    32 C    0.984
    68   1 H    0.991 --    32 C    0.979
    69   1 H    0.991 --    33 C    0.976
    70   1 H    0.996 --    33 C    0.985
    71   1 H    0.990 --    33 C    0.977
    72   1 H    0.964 --     1 N    0.945
 ---------------------------------------------------------------------------

molecular dipole:
                 x           y           z       tot (Debye)
 q only:        0.637      -0.235      -0.462
   full:        0.963      -0.265      -0.488       2.825

           -------------------------------------------------
          | TOTAL ENERGY              -99.369911054026 Eh   |
          | GRADIENT NORM               0.003647419503 Eh/α |
          | HOMO-LUMO GAP               0.664473189111 eV   |
           -------------------------------------------------

 * finished run on 2024/04/06 at 11:11:55.506
