   * xtb version 6.6.1 (8d0f1dd) compiled by 'conda@1efc2f54142f' on 2023-08-01
          program call               : xtb struc.xyz --opt loose --input .xc1 --gfn2

   ID    Z sym.   atoms
    1    7 N      1, 17
    2    6 C      2-6, 8, 9, 11-16, 18-23, 25, 26, 28-33
    3    8 O      7, 10, 24, 27
    4    1 H      34-72
constraining bond 13 63 to    8.7133300 Å, actual value:    2.5182942 Å

          :  Hamiltonian                  GFN2-xTB          :
 * total energy  :  -106.2567295 Eh     change       -0.4035485E-08 Eh
 * total energy  :  -107.8996537 Eh     change       -0.1642924E+01 Eh
 * total energy  :  -109.6875158 Eh     change       -0.1787862E+01 Eh
 * total energy  :  -108.7387854 Eh     change        0.9487304E+00 Eh
 * total energy  :  -110.3479100 Eh     change       -0.1609125E+01 Eh
 * total energy  :  -110.4648745 Eh     change       -0.1169646E+00 Eh
 * total energy  :  -110.5706793 Eh     change       -0.1058048E+00 Eh
 * total energy  :  -110.5810283 Eh     change       -0.1034897E-01 Eh
 * total energy  :  -110.5868147 Eh     change       -0.5786371E-02 Eh
 * total energy  :  -110.5931980 Eh     change       -0.6383367E-02 Eh
 * total energy  :  -110.6092676 Eh     change       -0.1558611E-03 Eh
 * total energy  :  -110.6094098 Eh     change       -0.1422227E-03 Eh
 * total energy  :  -110.6094935 Eh     change       -0.8372726E-04 Eh
 * total energy  :  -110.6095294 Eh     change       -0.3584245E-04 Eh
 * total energy  :  -110.6095984 Eh     change       -0.6904723E-04 Eh
 * total energy  :  -110.6096409 Eh     change       -0.4241910E-04 Eh
 * total energy  :  -110.6096896 Eh     change       -0.4869607E-04 Eh
 * total energy  :  -110.6097167 Eh     change       -0.2712667E-04 Eh
 * total energy  :  -110.6097449 Eh     change       -0.2821921E-04 Eh
   *** GEOMETRY OPTIMIZATION CONVERGED AFTER 40 ITERATIONS ***

 final structure:
================
72
 xtb: 6.6.1 (8d0f1dd)
N           -1.80993183557098        2.61988600217702        2.22876018077959
C           -1.71350142439725        2.05204090787508        1.11785073400383
C           -2.86889357748964        1.86722813044269        0.16609858521015
C           -3.37807601030363        0.44444155893104        0.26567968990189
C           -4.35441419848496       -0.01477847180389       -0.57057487942310
C           -4.87955721937876       -1.31223488507649       -0.48614645971303
O           -5.85424365914478       -1.80307831387249       -1.25367278849306
C           -6.47726688925270       -0.98569837043600       -2.21910922166260
C           -4.35343216075157       -2.22740990466522        0.49637039394145
O           -4.91303777287959       -3.45382848194043        0.45780683196328
C           -4.51846082615976       -4.41188950177384        1.41286119740141
C           -3.37978430008924       -1.81564528492868        1.34266013686633
C           -2.79040104171548       -0.42459249488750        1.35319762756854
C           -2.33124142241372        2.14719974791171       -1.26407469603604
C           -1.45133917728865        1.03659528520480       -1.86616435243385
C           -0.08914533689306        0.96542097561095       -1.27193105341119
N            0.51044781822494       -0.13544514840192       -0.83079065210058
C            1.89245061113604        0.01395055798794       -0.38057520217633
C            2.88220791813905       -0.22745497658399       -1.52956646302079
C            4.28903633802497       -0.04042988623868       -1.03124222136112
C            4.94339361085099        1.17005273410730       -1.18595697511240
C            6.22536929598103        1.35322636757101       -0.68943082314654
C            6.87539953646718        0.32828164157741       -0.01774322823769
O            8.11050900543438        0.39458052204675        0.51265609246771
C            8.84139566241008        1.59432526053738        0.40716765393384
C            6.21150917375938       -0.91956136575501        0.14583120057760
O            6.91522896739035       -1.85966120543693        0.80744673421408
C            6.34877522091291       -3.13270145964457        1.00636928304360
C            4.93258436262663       -1.07949678690796       -0.36228255215678
C           -0.00073429570002       -1.35705444846688       -0.77002325432185
C           -4.05882167522730        2.83722236337696        0.46822846974353
C           -4.75668501585299        2.49572477543341        1.78307481179658
C           -3.63843671205132        4.30391058675805        0.47770111122701
H           -4.74924393868177        0.64478218689681       -1.32693920843663
H           -6.94776564756796       -0.11212607773933       -1.75874115442024
H           -7.24346939256340       -1.60809031052379       -2.67737765575314
H           -5.76880806577498       -0.66118968302800       -2.98708678994834
H           -4.70232222830403       -4.05867077550488        2.43190057885663
H           -5.13242534317287       -5.28855171477959        1.21689703988888
H           -3.46206693654559       -4.67591477212685        1.30168165952436
H           -2.97033459449014       -2.48470485237592        2.08201162080945
H           -3.18099680357718        0.03612657681566        2.29998677901612
H           -3.18122065065919        2.29847746876808       -1.92910168477689
H           -1.76029795474373        3.07596362058000       -1.24494646808074
H           -1.96828647569794        0.08223109476126       -1.78679912440153
H           -1.34544133516451        1.26555304723791       -2.93357247853058
H           -0.77234232636850        1.63920819754534        0.71813877147369
H            0.50951554613320        1.86086496943120       -1.30635763453685
H            2.08428417728692       -0.70111290928356        0.42086633939722
H            2.03978101884974        1.02107280777353        0.01467419504724
H            2.67543147540819        0.47677250962860       -2.33660023241758
H            2.74649034324132       -1.23975633486307       -1.91350810653466
H            4.46105680554240        1.98310753067184       -1.70687156146801
H            6.71243056784262        2.30348121588112       -0.83454109432636
H            8.31760671685103        2.42657875773168        0.88735659532074
H            9.04871367453369        1.84654753836524       -0.63695653993932
H            9.77966305050814        1.41085335736681        0.92685337841864
H            7.10209401950509       -3.70685039937388        1.54245290763314
H            5.43874340454210       -3.07651568582520        1.61272781456945
H            6.12625013404601       -3.62670048390752        0.05551709144526
H            4.42372776729341       -2.02435702055342       -0.25254183746939
H           -0.98533583906526       -1.56735124574339       -1.13167300670592
H           -2.15096904513740       -0.43601602032027        1.35336783578904
H            0.59405252653992       -2.15313238797739       -0.37338194394585
H           -4.78309798742438        2.69939896365199       -0.34203762339030
H           -4.06390354413282        2.60366983879747        2.61145090751538
H           -5.15247622918207        1.48263203416557        1.77091208674175
H           -5.58735240853133        3.17929734134485        1.93844213345798
H           -2.92122488113395        4.48798035536780        1.27157841829539
H           -3.20806539301350        4.60866270703113       -0.47215791609195
H           -4.51266572381393        4.92314777306866        0.66116023185964
H           -0.96411585669285        2.70564387282010        2.78400460688538

          :  Hamiltonian                  GFN2-xTB          :
         :: total energy            -110.609744900735 Eh    ::
         :: gradient norm              0.002175785541 Eh/a0 ::
         :: HOMO-LUMO gap              0.969419940974 eV    ::
         :: SCC energy              -100.744936153214 Eh    ::
         :: -> dispersion             -0.075009383234 Eh    ::
         :: repulsion energy           1.773112341555 Eh    ::

    * Orbital Energies and Occupations

         #    Occupation            Energy/Eh            Energy/eV
      -------------------------------------------------------------
         1        2.0000           -0.8258135             -22.4715
       ...           ...                  ...                  ...
        78        1.9987           -0.5317844             -14.4706
        79        1.9986           -0.5309775             -14.4486
        80        1.9982           -0.5265196             -14.3273
        81        1.9981           -0.5258256             -14.3084
        82        1.9969           -0.5180673             -14.0973
        83        1.9968           -0.5175163             -14.0823
        84        1.9960           -0.5139947             -13.9865
        85        1.9956           -0.5123902             -13.9428
        86        1.9768           -0.4859149             -13.2224
        87        1.9739           -0.4840179             -13.1708
        88        1.9543           -0.4749880             -12.9251
        89        1.8368           -0.4538541             -12.3500
        90        1.6212           -0.4385392             -11.9333 (HOMO)
        91        0.6217           -0.4029137             -10.9638 (LUMO)
        92        0.0193           -0.3421640              -9.3108
        93        0.0144           -0.3375472              -9.1851
        94        0.0051           -0.3209675              -8.7340
        95        0.0025           -0.3096852              -8.4270
        96        0.0021           -0.3068858              -8.3508
        97        0.0000           -0.2318653              -6.3094
        98        0.0000           -0.1847762              -5.0280
        99                         -0.1153162              -3.1379
       100                         -0.0803560              -2.1866
       101                         -0.0732692              -1.9938
       ...                                ...                  ...
       171                          2.5618779              69.7122
      -------------------------------------------------------------
                  HL-Gap            0.0356255 Eh            0.9694 eV

     #   Z          covCN         q      C6AA      α(0)
     1   7 N        1.774    -0.277    28.014     7.838
     2   6 C        2.825     0.095    25.879     8.336
     3   6 C        3.906     0.006    20.428     6.424
     4   6 C        2.962     0.008    27.837     8.654
     5   6 C        2.901    -0.074    29.833     8.956
     6   6 C        2.861     0.135    25.040     8.202
     7   8 O        1.706    -0.198    17.297     5.615
     8   6 C        3.644     0.021    20.563     6.518
     9   6 C        2.848     0.132    25.100     8.211
    10   8 O        1.706    -0.236    17.908     5.714
    11   6 C        3.646     0.025    20.492     6.506
    12   6 C        2.901    -0.089    30.231     9.015
    13   6 C        3.808    -0.113    22.651     6.775
    14   6 C        3.809    -0.066    21.753     6.639
    15   6 C        3.801    -0.064    21.720     6.635
    16   6 C        2.862    -0.045    29.109     8.844
    17   7 N        2.730     0.087    19.742     6.599
    18   6 C        3.783    -0.019    20.924     6.516
    19   6 C        3.808    -0.068    21.800     6.646
    20   6 C        2.970     0.001    28.006     8.681
    21   6 C        2.922    -0.048    29.190     8.860
    22   6 C        2.914    -0.067    29.678     8.933
    23   6 C        2.865     0.133    25.081     8.209
    24   8 O        1.706    -0.222    17.681     5.677
    25   6 C        3.645     0.025    20.487     6.505
    26   6 C        2.863     0.133    25.088     8.210
    27   8 O        1.706    -0.225    17.728     5.685
    28   6 C        3.645     0.027    20.451     6.500
    29   6 C        2.920    -0.080    29.988     8.980
    30   6 C        2.810    -0.110    30.763     9.087
    31   6 C        3.852    -0.008    20.679     6.468
    32   6 C        3.755    -0.121    22.883     6.821
    33   6 C        3.755    -0.118    22.806     6.809
    34   1 H        0.926     0.060     2.195     2.317
    35   1 H        0.924     0.062     2.174     2.306
    36   1 H        0.925     0.088     1.894     2.152
    37   1 H        0.924     0.058     2.220     2.330
    38   1 H        0.924     0.053     2.283     2.363
    39   1 H        0.925     0.083     1.951     2.184
    40   1 H        0.924     0.049     2.327     2.386
    41   1 H        0.926     0.057     2.238     2.339
    42   1 H        0.919     0.097     1.818     2.109
    43   1 H        0.925     0.053     2.279     2.361
    44   1 H        0.924     0.053     2.278     2.360
    45   1 H        0.925     0.052     2.293     2.368
    46   1 H        0.924     0.064     2.157     2.297
    47   1 H        0.923     0.010     2.897     2.662
    48   1 H        0.926     0.050     2.326     2.385
    49   1 H        0.924     0.071     2.079     2.255
    50   1 H        0.924     0.065     2.139     2.287
    51   1 H        0.924     0.057     2.239     2.340
    52   1 H        0.924     0.059     2.214     2.327
    53   1 H        0.926     0.047     2.355     2.400
    54   1 H        0.926     0.059     2.214     2.327
    55   1 H        0.924     0.054     2.272     2.357
    56   1 H        0.924     0.056     2.242     2.341
    57   1 H        0.925     0.082     1.958     2.188
    58   1 H        0.925     0.081     1.964     2.191
    59   1 H        0.924     0.048     2.343     2.394
    60   1 H        0.924     0.053     2.282     2.363
    61   1 H        0.926     0.048     2.346     2.395
    62   1 H        0.927     0.054     2.267     2.355
    63   1 H        0.932     0.142     1.444     1.879
    64   1 H        0.927     0.055     2.260     2.351
    65   1 H        0.924     0.036     2.501     2.473
    66   1 H        0.925     0.070     2.082     2.256
    67   1 H        0.925     0.031     2.565     2.505
    68   1 H        0.925     0.053     2.284     2.363
    69   1 H        0.925     0.059     2.207     2.323
    70   1 H        0.925     0.037     2.492     2.469
    71   1 H        0.925     0.055     2.264     2.353
    72   1 H        0.860     0.155     1.369     1.833

Wiberg/Mayer (AO) data.
largest (>0.10) Wiberg bond orders for each atom

     #   Z sym  total        # sym  WBO       # sym  WBO       # sym  WBO
 ---------------------------------------------------------------------------
     1   7 N    3.018 --     2 C    1.956    72 H    0.943
     2   6 C    3.929 --     1 N    1.956     3 C    0.993    47 H    0.914
     3   6 C    3.977 --     2 C    0.993     4 C    0.986    14 C    0.954
                            31 C    0.930
     4   6 C    3.734 --     5 C    1.556    13 C    1.029     3 C    0.986
     5   6 C    3.977 --     4 C    1.556     6 C    1.289    34 H    0.953
     6   6 C    3.687 --     5 C    1.289     7 O    1.152     9 C    1.130
     7   8 O    2.271 --     6 C    1.152     8 C    0.970
     8   6 C    3.925 --    36 H    0.976    35 H    0.972    37 H    0.972
                             7 O    0.970
     9   6 C    3.936 --    12 C    1.585     6 C    1.130    10 O    1.093
    10   8 O    2.261 --     9 C    1.093    11 C    0.976    12 C    0.108
    11   6 C    3.932 --    39 H    0.977    10 O    0.976    40 H    0.975
                            38 H    0.974
    12   6 C    3.800 --     9 C    1.585    13 C    1.032    41 H    0.963
                            10 O    0.108
    13   6 C    3.962 --    12 C    1.032     4 C    1.029    63 H    0.937
                            42 H    0.885
    14   6 C    3.968 --    15 C    0.985    44 H    0.972    43 H    0.970
                             3 C    0.954
    15   6 C    3.987 --    16 C    1.044    14 C    0.985    45 H    0.962
                            46 H    0.943
    16   6 C    3.687 --    17 N    1.345    15 C    1.044    48 H    0.962
                            30 C    0.240
    17   7 N    3.737 --    30 C    1.364    16 C    1.345    18 C    0.966
    18   6 C    3.955 --    19 C    0.977    50 H    0.969    49 H    0.968
                            17 N    0.966
    19   6 C    3.987 --    20 C    1.006    18 C    0.977    51 H    0.972
                            52 H    0.970
    20   6 C    3.943 --    21 C    1.412    29 C    1.379    19 C    1.006
    21   6 C    3.949 --    22 C    1.414    20 C    1.412    53 H    0.968
    22   6 C    3.958 --    21 C    1.414    23 C    1.385    54 H    0.963
    23   6 C    3.894 --    22 C    1.385    26 C    1.218    24 O    1.110
    24   8 O    2.254 --    23 C    1.110    25 C    0.976
    25   6 C    3.928 --    57 H    0.977    24 O    0.976    55 H    0.973
                            56 H    0.972
    26   6 C    3.897 --    29 C    1.397    23 C    1.218    27 O    1.103
    27   8 O    2.253 --    26 C    1.103    28 C    0.979
    28   6 C    3.932 --    27 O    0.979    58 H    0.977    59 H    0.973
                            60 H    0.973
    29   6 C    3.959 --    26 C    1.397    20 C    1.379    61 H    0.962
    30   6 C    3.621 --    17 N    1.364    64 H    0.976    62 H    0.969
                            16 C    0.240
    31   6 C    3.966 --    33 C    1.010    32 C    1.009    65 H    0.961
                             3 C    0.930
    32   6 C    3.982 --    31 C    1.009    67 H    0.983    68 H    0.981
                            66 H    0.974
    33   6 C    3.984 --    31 C    1.010    70 H    0.983    71 H    0.980
                            69 H    0.978
    34   1 H    0.995 --     5 C    0.953
    35   1 H    0.990 --     8 C    0.972
    36   1 H    0.992 --     8 C    0.976
    37   1 H    0.990 --     8 C    0.972
    38   1 H    0.995 --    11 C    0.974
    39   1 H    0.993 --    11 C    0.977
    40   1 H    0.996 --    11 C    0.975
    41   1 H    0.995 --    12 C    0.963
    42   1 H    0.942 --    13 C    0.885
    43   1 H    0.996 --    14 C    0.970
    44   1 H    0.996 --    14 C    0.972
    45   1 H    0.997 --    15 C    0.962
    46   1 H    0.978 --    15 C    0.943
    47   1 H    0.986 --     2 C    0.914
    48   1 H    0.997 --    16 C    0.962
    49   1 H    0.994 --    18 C    0.968
    50   1 H    0.996 --    18 C    0.969
    51   1 H    0.996 --    19 C    0.972
    52   1 H    0.995 --    19 C    0.970
    53   1 H    0.997 --    21 C    0.968
    54   1 H    0.995 --    22 C    0.963
    55   1 H    0.992 --    25 C    0.973
    56   1 H    0.991 --    25 C    0.972
    57   1 H    0.993 --    25 C    0.977
    58   1 H    0.993 --    28 C    0.977
    59   1 H    0.993 --    28 C    0.973
    60   1 H    0.993 --    28 C    0.973
    61   1 H    0.996 --    29 C    0.962
    62   1 H    0.997 --    30 C    0.969
    63   1 H    0.970 --    13 C    0.937
    64   1 H    0.997 --    30 C    0.976
    65   1 H    0.994 --    31 C    0.961
    66   1 H    0.992 --    32 C    0.974
    67   1 H    0.998 --    32 C    0.983
    68   1 H    0.995 --    32 C    0.981
    69   1 H    0.994 --    33 C    0.978
    70   1 H    0.997 --    33 C    0.983
    71   1 H    0.994 --    33 C    0.980
    72   1 H    0.971 --     1 N    0.943
 ---------------------------------------------------------------------------

molecular dipole:
                 x           y           z       tot (Debye)
 q only:       -0.263      -0.090      -0.346
   full:        0.012      -0.126      -0.558       1.455

           -------------------------------------------------
          | TOTAL ENERGY             -110.609744900735 Eh   |
          | GRADIENT NORM               0.002175785541 Eh/α |
          | HOMO-LUMO GAP               0.969419940974 eV   |
           -------------------------------------------------

 * finished run on 2024/04/06 at 11:16:31.194
