   * xtb version 6.6.1 (8d0f1dd) compiled by 'conda@1efc2f54142f' on 2023-08-01
          program call               : xtb xtbopt.xyz --opt crude --input .xc2 --gfn2

   ID    Z sym.   atoms
    1    7 N      1, 17
    2    6 C      2-6, 8, 9, 11-16, 18-23, 25, 26, 28-33
    3    8 O      7, 10, 24, 27
    4    1 H      34-72
########################################################################
[WARNING] Please study the warnings concerning your input carefully
-1- readin_getIntValue: could not parse ''
########################################################################

          :  Hamiltonian                  GFN2-xTB          :
 * total energy  :   -98.9705433 Eh     change       -0.2160050E-11 Eh
 * total energy  :   -99.3453201 Eh     change       -0.3747767E+00 Eh
 * total energy  :   -99.3490548 Eh     change       -0.3734782E-02 Eh
 * total energy  :   -99.3502090 Eh     change       -0.1154155E-02 Eh
 * total energy  :   -99.3505394 Eh     change       -0.3304253E-03 Eh
 * total energy  :   -99.3508009 Eh     change       -0.2615192E-03 Eh
 * total energy  :   -99.3509113 Eh     change       -0.1103251E-03 Eh
   *** GEOMETRY OPTIMIZATION CONVERGED AFTER 7 ITERATIONS ***

 final structure:
================
72
 xtb: 6.6.1 (8d0f1dd)
N           -1.82952044514874        2.59406930617692        2.25010372796874
C           -1.72412548347647        2.06232532337063        1.12233668262162
C           -2.87736923717616        1.86649372607408        0.17187462006127
C           -3.38970679195359        0.44485029201194        0.27532758740863
C           -4.35189189351586       -0.01730680796597       -0.57686653995312
C           -4.87669453570224       -1.31532395505261       -0.49905919029837
O           -5.84164931352150       -1.80839228203736       -1.27900335127191
C           -6.47158153327665       -0.98889993288689       -2.23832754715281
C           -4.36608500052036       -2.22944480835771        0.49209950466600
O           -4.92018432231419       -3.45810540642903        0.44270376702635
C           -4.53101840727447       -4.41724880065586        1.39913765884781
C           -3.41716772197070       -1.81153870945642        1.36390241373577
C           -2.86727945256086       -0.43078111771288        1.35983677302312
C           -2.34080547721763        2.14217796941983       -1.25965672275590
C           -1.45850352947971        1.03140531108779       -1.85829507547732
C           -0.09461438891761        0.96747169862708       -1.26778594420876
N            0.50659981676202       -0.12818430018285       -0.81607416454606
C            1.89022820106988        0.02420179353551       -0.37249072467444
C            2.87660385168665       -0.23189331246021       -1.52182251299783
C            4.28458400446320       -0.04423890420473       -1.02720034324439
C            4.93757149770179        1.16715651395242       -1.18289342527910
C            6.21920051852855        1.35206773962370       -0.68675699223178
C            6.87201863091975        0.32753580618106       -0.01671142507527
O            8.10777885133112        0.39606714749201        0.51211524033366
C            8.84044199519943        1.59412411354871        0.39633204451630
C            6.21055042084960       -0.92156121820171        0.14564802229668
O            6.91709727421854       -1.86289595119977        0.80277107487880
C            6.35310025934595       -3.13779643449174        0.99645072985276
C            4.93025662610489       -1.08250966693002       -0.35950814057116
C           -0.00691109960311       -1.34850915944629       -0.73655390261752
C           -4.06713231343783        2.84057674092898        0.46769735526865
C           -4.76866831401179        2.50678126174924        1.78217553771558
C           -3.64237584629410        4.30624453278514        0.47271427026150
H           -4.73648632473407        0.63964922551600       -1.34052596673681
H           -6.93699599984483       -0.11501399046273       -1.77361679798462
H           -7.24276778217026       -1.61006670443226       -2.69018046663233
H           -5.77007720289588       -0.66515355565181       -3.01292994911391
H           -4.73477740550799       -4.07178286103964        2.41658718270317
H           -5.13161446098231       -5.29982887237937        1.18922194833722
H           -3.47003669090202       -4.66823868333399        1.30264415350387
H           -3.03054070295805       -2.47082899070530        2.12392140891586
H           -3.09943789221825        0.04480748529358        2.32673434941374
H           -3.18983795638799        2.29097792808969       -1.92623523621427
H           -1.77083862402677        3.07161901006767       -1.24320114769067
H           -1.97250026388345        0.07622441231197       -1.77128615859116
H           -1.35584919884714        1.25558344016330       -2.92711403586391
H           -0.77037084020897        1.70005412094773        0.70173472283633
H            0.50568524267211        1.86150562245862       -1.31600284256473
H            2.08421353069294       -0.68245007382350        0.43636978636201
H            2.04079478334153        1.03550644432458        0.01119977003269
H            2.67012313157297        0.46507089189009       -2.33547674617137
H            2.73672312334037       -1.24775141732215       -1.89543416632226
H            4.45387966954016        1.97926818547903       -1.70394493500323
H            6.70427869460666        2.30357140863915       -0.83011354340613
H            8.32649790034242        2.42696283191496        0.88591863106579
H            9.03174944395790        1.84690399118507       -0.65083805378394
H            9.78643545087255        1.40739871673264        0.90101784196768
H            7.10730403558059       -3.71297010010233        1.52995956779651
H            5.44301352711525       -3.08593248114186        1.60289731084267
H            6.13144935789524       -3.62805070272448        0.04345199001916
H            4.42269627626362       -2.02799472160386       -0.24909700716598
H           -0.99000145860636       -1.56433551051550       -1.09967057133400
H           -1.76917553320534       -0.46963970887271        1.33175641553768
H            0.59024195963271       -2.14080744114122       -0.33548754198112
H           -4.78936550266548        2.70162747834222       -0.34425117317478
H           -4.07502561121262        2.60951224421876        2.61041098600927
H           -5.17134954992353        1.49667238117074        1.77136958334287
H           -5.59302355073779        3.19823568256850        1.93618730123513
H           -2.92826809434460        4.49217939142541        1.26902599500158
H           -3.20686627522912        4.60692437119653       -0.47612871604667
H           -4.51529928808749        4.92913353803338        0.64989983958556
H           -0.98081116165590        2.69667802689685        2.79827010574865

          :  Hamiltonian                  GFN2-xTB          :
         :: total energy             -99.350911268137 Eh    ::
         :: gradient norm              0.004409035183 Eh/a0 ::
         :: HOMO-LUMO gap              0.977211249396 eV    ::
         :: SCC energy              -100.721368890831 Eh    ::
         :: -> dispersion             -0.075057256912 Eh    ::
         :: repulsion energy           1.369171563627 Eh    ::

    * Orbital Energies and Occupations

         #    Occupation            Energy/Eh            Energy/eV
      -------------------------------------------------------------
         1        2.0000           -0.8255715             -22.4649
       ...           ...                  ...                  ...
        78        1.9987           -0.5316689             -14.4674
        79        1.9986           -0.5308065             -14.4440
        80        1.9982           -0.5266763             -14.3316
        81        1.9981           -0.5257788             -14.3072
        82        1.9969           -0.5180568             -14.0970
        83        1.9968           -0.5177104             -14.0876
        84        1.9960           -0.5141853             -13.9917
        85        1.9955           -0.5120820             -13.9345
        86        1.9768           -0.4861412             -13.2286
        87        1.9724           -0.4833209             -13.1518
        88        1.9544           -0.4752219             -12.9314
        89        1.8365           -0.4540338             -12.3549
        90        1.6255           -0.4389787             -11.9452 (HOMO)
        91        0.6200           -0.4030668             -10.9680 (LUMO)
        92        0.0188           -0.3420035              -9.3064
        93        0.0148           -0.3382060              -9.2031
        94        0.0048           -0.3201538              -8.7118
        95        0.0025           -0.3099037              -8.4329
        96        0.0021           -0.3071345              -8.3576
        97        0.0000           -0.2326926              -6.3319
        98        0.0000           -0.1850278              -5.0349
        99                         -0.1155816              -3.1451
       100                         -0.0772173              -2.1012
       101                         -0.0715725              -1.9476
       ...                                ...                  ...
       171                          0.5791842              15.7604
      -------------------------------------------------------------
                  HL-Gap            0.0359119 Eh            0.9772 eV

     #   Z          covCN         q      C6AA      α(0)
     1   7 N        1.774    -0.278    28.026     7.839
     2   6 C        2.824     0.097    25.845     8.330
     3   6 C        3.906     0.006    20.428     6.424
     4   6 C        2.962     0.015    27.680     8.630
     5   6 C        2.904    -0.073    29.809     8.952
     6   6 C        2.860     0.136    25.029     8.200
     7   8 O        1.706    -0.198    17.307     5.617
     8   6 C        3.644     0.021    20.564     6.519
     9   6 C        2.850     0.133    25.079     8.208
    10   8 O        1.706    -0.235    17.897     5.712
    11   6 C        3.646     0.024    20.494     6.506
    12   6 C        2.901    -0.082    30.050     8.988
    13   6 C        3.812    -0.064    21.724     6.634
    14   6 C        3.809    -0.066    21.761     6.640
    15   6 C        3.801    -0.064    21.723     6.636
    16   6 C        2.862    -0.045    29.101     8.842
    17   7 N        2.730     0.085    19.765     6.603
    18   6 C        3.783    -0.018    20.914     6.514
    19   6 C        3.808    -0.068    21.799     6.646
    20   6 C        2.970     0.001    28.006     8.681
    21   6 C        2.922    -0.048    29.191     8.860
    22   6 C        2.914    -0.067    29.676     8.933
    23   6 C        2.865     0.133    25.081     8.209
    24   8 O        1.706    -0.222    17.681     5.677
    25   6 C        3.645     0.025    20.489     6.506
    26   6 C        2.863     0.133    25.089     8.210
    27   8 O        1.706    -0.225    17.727     5.685
    28   6 C        3.645     0.027    20.451     6.500
    29   6 C        2.920    -0.079    29.986     8.980
    30   6 C        2.810    -0.110    30.759     9.087
    31   6 C        3.852    -0.007    20.670     6.466
    32   6 C        3.755    -0.121    22.881     6.820
    33   6 C        3.755    -0.117    22.796     6.808
    34   1 H        0.926     0.061     2.189     2.314
    35   1 H        0.924     0.062     2.178     2.308
    36   1 H        0.925     0.089     1.893     2.152
    37   1 H        0.924     0.058     2.219     2.330
    38   1 H        0.924     0.053     2.279     2.361
    39   1 H        0.925     0.083     1.948     2.182
    40   1 H        0.924     0.049     2.327     2.386
    41   1 H        0.926     0.059     2.212     2.326
    42   1 H        0.923     0.096     1.818     2.109
    43   1 H        0.925     0.053     2.278     2.360
    44   1 H        0.924     0.054     2.274     2.358
    45   1 H        0.925     0.052     2.294     2.369
    46   1 H        0.924     0.064     2.151     2.294
    47   1 H        0.923     0.010     2.895     2.661
    48   1 H        0.926     0.050     2.324     2.384
    49   1 H        0.924     0.070     2.083     2.257
    50   1 H        0.924     0.065     2.141     2.288
    51   1 H        0.924     0.057     2.238     2.340
    52   1 H        0.924     0.059     2.215     2.327
    53   1 H        0.926     0.047     2.355     2.400
    54   1 H        0.926     0.059     2.213     2.327
    55   1 H        0.924     0.054     2.270     2.356
    56   1 H        0.924     0.056     2.242     2.342
    57   1 H        0.925     0.082     1.957     2.188
    58   1 H        0.925     0.082     1.963     2.191
    59   1 H        0.924     0.048     2.342     2.393
    60   1 H        0.924     0.053     2.282     2.362
    61   1 H        0.926     0.048     2.345     2.394
    62   1 H        0.927     0.054     2.270     2.356
    63   1 H        0.923     0.071     2.077     2.254
    64   1 H        0.927     0.055     2.263     2.353
    65   1 H        0.924     0.036     2.497     2.471
    66   1 H        0.925     0.071     2.073     2.251
    67   1 H        0.925     0.032     2.554     2.499
    68   1 H        0.925     0.053     2.283     2.363
    69   1 H        0.925     0.058     2.227     2.334
    70   1 H        0.925     0.037     2.490     2.468
    71   1 H        0.925     0.055     2.260     2.351
    72   1 H        0.860     0.155     1.365     1.830

Wiberg/Mayer (AO) data.
largest (>0.10) Wiberg bond orders for each atom

     #   Z sym  total        # sym  WBO       # sym  WBO       # sym  WBO
 ---------------------------------------------------------------------------
     1   7 N    3.018 --     2 C    1.955    72 H    0.943
     2   6 C    3.928 --     1 N    1.955     3 C    0.994    47 H    0.912
     3   6 C    3.977 --     2 C    0.994     4 C    0.986    14 C    0.956
                            31 C    0.928
     4   6 C    3.738 --     5 C    1.549    13 C    1.043     3 C    0.986
     5   6 C    3.976 --     4 C    1.549     6 C    1.291    34 H    0.954
     6   6 C    3.691 --     5 C    1.291     7 O    1.151     9 C    1.131
     7   8 O    2.270 --     6 C    1.151     8 C    0.970
     8   6 C    3.925 --    36 H    0.976    35 H    0.972    37 H    0.971
                             7 O    0.970
     9   6 C    3.936 --    12 C    1.579     6 C    1.131    10 O    1.094
    10   8 O    2.260 --     9 C    1.094    11 C    0.976    12 C    0.107
    11   6 C    3.931 --    39 H    0.977    10 O    0.976    40 H    0.975
                            38 H    0.974
    12   6 C    3.804 --     9 C    1.579    13 C    1.047    41 H    0.963
                            10 O    0.107
    13   6 C    3.984 --    12 C    1.047     4 C    1.043    63 H    0.918
                            42 H    0.904
    14   6 C    3.968 --    15 C    0.985    44 H    0.972    43 H    0.970
                             3 C    0.956
    15   6 C    3.987 --    16 C    1.044    14 C    0.985    45 H    0.962
                            46 H    0.943
    16   6 C    3.689 --    17 N    1.345    15 C    1.044    48 H    0.962
                            30 C    0.240
    17   7 N    3.736 --    30 C    1.362    16 C    1.345    18 C    0.966
    18   6 C    3.955 --    19 C    0.977    50 H    0.969    49 H    0.968
                            17 N    0.966
    19   6 C    3.987 --    20 C    1.007    18 C    0.977    51 H    0.972
                            52 H    0.970
    20   6 C    3.943 --    21 C    1.412    29 C    1.379    19 C    1.007
    21   6 C    3.949 --    22 C    1.415    20 C    1.412    53 H    0.968
    22   6 C    3.958 --    21 C    1.415    23 C    1.384    54 H    0.963
    23   6 C    3.894 --    22 C    1.384    26 C    1.218    24 O    1.110
    24   8 O    2.254 --    23 C    1.110    25 C    0.976
    25   6 C    3.928 --    57 H    0.977    24 O    0.976    55 H    0.973
                            56 H    0.972
    26   6 C    3.897 --    29 C    1.396    23 C    1.218    27 O    1.103
    27   8 O    2.253 --    26 C    1.103    28 C    0.979
    28   6 C    3.932 --    27 O    0.979    58 H    0.977    59 H    0.973
                            60 H    0.973
    29   6 C    3.959 --    26 C    1.396    20 C    1.379    61 H    0.962
    30   6 C    3.623 --    17 N    1.362    64 H    0.976    62 H    0.969
                            16 C    0.240
    31   6 C    3.966 --    33 C    1.010    32 C    1.009    65 H    0.961
                             3 C    0.928
    32   6 C    3.981 --    31 C    1.009    67 H    0.983    68 H    0.981
                            66 H    0.973
    33   6 C    3.985 --    31 C    1.010    70 H    0.983    71 H    0.980
                            69 H    0.979
    34   1 H    0.995 --     5 C    0.954
    35   1 H    0.990 --     8 C    0.972
    36   1 H    0.992 --     8 C    0.976
    37   1 H    0.990 --     8 C    0.971
    38   1 H    0.995 --    11 C    0.974
    39   1 H    0.992 --    11 C    0.977
    40   1 H    0.995 --    11 C    0.975
    41   1 H    0.995 --    12 C    0.963
    42   1 H    0.950 --    13 C    0.904
    43   1 H    0.996 --    14 C    0.970
    44   1 H    0.996 --    14 C    0.972
    45   1 H    0.997 --    15 C    0.962
    46   1 H    0.978 --    15 C    0.943
    47   1 H    0.986 --     2 C    0.912
    48   1 H    0.997 --    16 C    0.962
    49   1 H    0.994 --    18 C    0.968
    50   1 H    0.996 --    18 C    0.969
    51   1 H    0.996 --    19 C    0.972
    52   1 H    0.995 --    19 C    0.970
    53   1 H    0.997 --    21 C    0.968
    54   1 H    0.995 --    22 C    0.963
    55   1 H    0.992 --    25 C    0.973
    56   1 H    0.991 --    25 C    0.972
    57   1 H    0.992 --    25 C    0.977
    58   1 H    0.993 --    28 C    0.977
    59   1 H    0.993 --    28 C    0.973
    60   1 H    0.993 --    28 C    0.973
    61   1 H    0.996 --    29 C    0.962
    62   1 H    0.997 --    30 C    0.969
    63   1 H    0.963 --    13 C    0.918
    64   1 H    0.997 --    30 C    0.976
    65   1 H    0.994 --    31 C    0.961
    66   1 H    0.992 --    32 C    0.973
    67   1 H    0.998 --    32 C    0.983
    68   1 H    0.994 --    32 C    0.981
    69   1 H    0.995 --    33 C    0.979
    70   1 H    0.997 --    33 C    0.983
    71   1 H    0.994 --    33 C    0.980
    72   1 H    0.971 --     1 N    0.943
 ---------------------------------------------------------------------------

molecular dipole:
                 x           y           z       tot (Debye)
 q only:       -0.308      -0.083      -0.375
   full:        0.027      -0.099      -0.578       1.493

           -------------------------------------------------
          | TOTAL ENERGY              -99.350911268137 Eh   |
          | GRADIENT NORM               0.004409035183 Eh/α |
          | HOMO-LUMO GAP               0.977211249396 eV   |
           -------------------------------------------------

 * finished run on 2024/04/06 at 11:16:32.633
