   * xtb version 6.6.1 (8d0f1dd) compiled by 'conda@1efc2f54142f' on 2023-08-01
          program call               : xtb struc.xyz --opt loose --input .xc1 --gfn2

   ID    Z sym.   atoms
    1    6 C      1, 3, 5-7, 10, 11, 14
    2    7 N      2, 4, 9, 13
    3    8 O      8, 12
    4    1 H      15-25
constraining bond 7 20 to    3.7133300 Å, actual value:    3.1456537 Å

          :  Hamiltonian                  GFN2-xTB          :
 * total energy  :   -42.8206826 Eh     change       -0.6633627E-10 Eh
 * total energy  :   -45.1049964 Eh     change       -0.2284314E+01 Eh
 * total energy  :   -49.0388911 Eh     change       -0.3933895E+01 Eh
 * total energy  :   -54.8230779 Eh     change       -0.5784187E+01 Eh
 * total energy  :   -57.1129616 Eh     change       -0.2289884E+01 Eh
 * total energy  :   -58.0138483 Eh     change       -0.9008868E+00 Eh
 * total energy  :   -58.7585508 Eh     change       -0.7447025E+00 Eh
 * total energy  :   -58.3476526 Eh     change        0.4108982E+00 Eh
 * total energy  :   -59.2459121 Eh     change       -0.8982595E+00 Eh
 * total energy  :   -59.3488028 Eh     change       -0.1028907E+00 Eh
 * total energy  :   -59.7268083 Eh     change        0.1549232E-03 Eh
 * total energy  :   -59.7269494 Eh     change       -0.1411356E-03 Eh
 * total energy  :   -59.7269750 Eh     change       -0.2558944E-04 Eh
 * total energy  :   -59.7270500 Eh     change       -0.7501609E-04 Eh
 * total energy  :   -59.7270733 Eh     change       -0.2331364E-04 Eh
 * total energy  :   -59.7271204 Eh     change       -0.4707656E-04 Eh
 * total energy  :   -59.7271379 Eh     change       -0.1748725E-04 Eh
 * total energy  :   -59.7271968 Eh     change       -0.5895427E-04 Eh
 * total energy  :   -59.7272220 Eh     change       -0.2519377E-04 Eh
   *** GEOMETRY OPTIMIZATION CONVERGED AFTER 52 ITERATIONS ***

 final structure:
================
25
 xtb: 6.6.1 (8d0f1dd)
C            3.14238563140791        1.17265065050032       -0.21969874819321
N            2.14705606236718        0.14041994316972       -0.08927528757392
C            2.36774923842217       -1.11926130412870        0.25425722119292
N            1.19783354467512       -1.77705126616937        0.27293658745166
C            0.20225793263133       -0.90180315905734       -0.07426042878754
C            0.81125932541001        0.31001919118914       -0.32013616376556
C            0.10652684314036        1.64407218230864       -0.80495611081559
O            0.46908999801848        2.65070550624736       -0.17045535783819
N           -1.61148382212492        1.03205902070410        0.11820345778709
C           -2.23600467933338        1.95692646152861        0.70300567760193
C           -2.12783401196844       -0.28652193385504        0.02152230999939
O           -3.29279903403192       -0.55348081290013        0.03439971074191
N           -1.12825141823108       -1.23479624459158       -0.10001808098036
C           -1.51323368067410       -2.63611295639147       -0.13227900614296
H            3.93990096536718        1.01432090213569        0.50413517076727
H            3.56835646119424        1.16358202838215       -1.22528036084269
H            2.67441020821828        2.14155584169575       -0.04240952824267
H            3.32373575486289       -1.54903290517196        0.47939347467418
H           -1.76738167783961        2.93530558450105        0.71818461454130
H           -0.10783704474831        1.60709552433721       -1.16922312110061
H           -3.19288953806227        1.81174242109180        1.19634563019357
H           -1.31547090969096       -3.12291209534869        0.82459525084816
H           -0.98965080918337       -3.15148800727619       -0.93658655826067
H           -2.58455717754126       -2.67828254979021       -0.32257670830515
H            1.07726335181527       -2.75147348151156        0.51134797295100

          :  Hamiltonian                  GFN2-xTB          :
         :: total energy             -59.727222042447 Eh    ::
         :: gradient norm              0.002946514928 Eh/a0 ::
         :: HOMO-LUMO gap              2.292030465081 eV    ::
         :: SCC energy               -42.686472721666 Eh    ::
         :: -> dispersion             -0.023090245005 Eh    ::
         :: repulsion energy           2.274750232627 Eh    ::

    * Orbital Energies and Occupations

         #    Occupation            Energy/Eh            Energy/eV
      -------------------------------------------------------------
         1        2.0000           -0.9082264             -24.7141
       ...           ...                  ...                  ...
        25        2.0000           -0.6727729             -18.3071
        26        2.0000           -0.6653183             -18.1042
        27        2.0000           -0.6573279             -17.8868
        28        2.0000           -0.6388067             -17.3828
        29        2.0000           -0.6334532             -17.2371
        30        2.0000           -0.6315286             -17.1848
        31        2.0000           -0.6240997             -16.9826
        32        2.0000           -0.6154772             -16.7480
        33        2.0000           -0.6113934             -16.6369
        34        2.0000           -0.5903011             -16.0629
        35        1.9997           -0.5613120             -15.2741
        36        1.9976           -0.5445282             -14.8174
        37        1.9914           -0.5343306             -14.5399 (HOMO)
        38        0.0110           -0.4501000             -12.2478 (LUMO)
        39        0.0002           -0.4177773             -11.3683
        40        0.0000           -0.4046999             -11.0124
        41                         -0.3528117              -9.6005
        42                         -0.3275788              -8.9139
        43                         -0.1927073              -5.2438
        44                         -0.1861761              -5.0661
        45                         -0.1574225              -4.2837
        46                         -0.1041084              -2.8329
        47                         -0.0682103              -1.8561
        48                         -0.0529011              -1.4395
       ...                                ...                  ...
        67                         10.5343984             286.6556
      -------------------------------------------------------------
                  HL-Gap            0.0842306 Eh            2.2920 eV

     #   Z          covCN         q      C6AA      α(0)
     1   6 C        3.693    -0.094    22.491     6.786
     2   7 N        2.859     0.092    19.654     6.584
     3   6 C        3.048     0.049    26.847     8.498
     4   7 N        2.814    -0.056    22.318     7.016
     5   6 C        3.036     0.105    25.637     8.305
     6   6 C        3.095    -0.027    28.565     8.760
     7   6 C        3.024     0.156    24.591     8.134
     8   8 O        0.863    -0.389    21.468     6.212
     9   7 N        2.099    -0.161    25.109     7.434
    10   6 C        2.793     0.070    26.427     8.421
    11   6 C        2.731     0.334    21.317     7.559
    12   8 O        0.858    -0.339    20.492     6.069
    13   7 N        2.739    -0.061    22.427     7.033
    14   6 C        3.701    -0.072    22.047     6.714
    15   1 H        0.925     0.103     1.761     2.075
    16   1 H        0.924     0.107     1.721     2.051
    17   1 H        0.924     0.136     1.487     1.907
    18   1 H        0.926     0.123     1.590     1.972
    19   1 H        0.925     0.139     1.466     1.893
    20   1 H        0.939     0.162     1.312     1.791
    21   1 H        0.925     0.116     1.649     2.008
    22   1 H        0.924     0.076     2.020     2.223
    23   1 H        0.925     0.080     1.983     2.202
    24   1 H        0.925     0.121     1.602     1.979
    25   1 H        0.860     0.229     0.969     1.542

Wiberg/Mayer (AO) data.
largest (>0.10) Wiberg bond orders for each atom

     #   Z sym  total        # sym  WBO       # sym  WBO       # sym  WBO
 ---------------------------------------------------------------------------
     1   6 C    3.918 --     2 N    0.984    15 H    0.970    17 H    0.958
                            16 H    0.956
     2   7 N    3.733 --     3 C    1.395     6 C    1.209     1 C    0.984
     3   6 C    3.931 --     2 N    1.395     4 N    1.308    18 H    0.952
     4   7 N    3.620 --     3 C    1.308     5 C    1.185    25 H    0.916
     5   6 C    3.948 --     6 C    1.446     4 N    1.185    13 N    1.125
     6   6 C    3.918 --     5 C    1.446     2 N    1.209     7 C    0.905
     7   6 C    3.929 --     8 O    1.744    20 H    0.957     6 C    0.905
                             9 N    0.251
     8   8 O    2.037 --     7 C    1.744     9 N    0.121
     9   7 N    3.381 --    10 C    1.883    11 C    0.991     7 C    0.251
                             8 O    0.121
    10   6 C    3.870 --     9 N    1.883    19 H    0.945    21 H    0.944
    11   6 C    3.956 --    12 O    1.752    13 N    1.118     9 N    0.991
    12   8 O    2.108 --    11 C    1.752    13 N    0.156
    13   7 N    3.544 --     5 C    1.125    11 C    1.118    14 C    0.974
                            12 O    0.156
    14   6 C    3.933 --    23 H    0.975    13 N    0.974    22 H    0.971
                            24 H    0.966
    15   1 H    0.989 --     1 C    0.970
    16   1 H    0.988 --     1 C    0.956
    17   1 H    0.981 --     1 C    0.958
    18   1 H    0.984 --     3 C    0.952
    19   1 H    0.979 --    10 C    0.945
    20   1 H    0.973 --     7 C    0.957
    21   1 H    0.985 --    10 C    0.944
    22   1 H    0.994 --    14 C    0.971
    23   1 H    0.992 --    14 C    0.975
    24   1 H    0.985 --    14 C    0.966
    25   1 H    0.947 --     4 N    0.916
 ---------------------------------------------------------------------------

molecular dipole:
                 x           y           z       tot (Debye)
 q only:        2.175      -1.585       0.153
   full:        2.180      -1.983       0.294       7.528

           -------------------------------------------------
          | TOTAL ENERGY              -59.727222042447 Eh   |
          | GRADIENT NORM               0.002946514928 Eh/α |
          | HOMO-LUMO GAP               2.292030465081 eV   |
           -------------------------------------------------

 * finished run on 2024/06/05 at 19:58:15.011
