   * xtb version 6.6.1 (8d0f1dd) compiled by 'conda@1efc2f54142f' on 2023-08-01
          program call               : xtb xtbopt.xyz --opt crude --input .xc2 --gfn2

   ID    Z sym.   atoms
    1    6 C      1, 3, 5-7, 10, 11, 14
    2    7 N      2, 4, 9, 13
    3    8 O      8, 12
    4    1 H      15-25
########################################################################
[WARNING] Please study the warnings concerning your input carefully
-1- readin_getIntValue: could not parse ''
########################################################################

          :  Hamiltonian                  GFN2-xTB          :
 * total energy  :   -40.4115503 Eh     change       -0.7105427E-14 Eh
 * total energy  :   -42.1091178 Eh     change       -0.1697567E+01 Eh
 * total energy  :   -42.1360502 Eh     change       -0.2693249E-01 Eh
 * total energy  :   -42.1424884 Eh     change       -0.6438145E-02 Eh
 * total energy  :   -42.1449310 Eh     change       -0.2442625E-02 Eh
 * total energy  :   -42.1453237 Eh     change       -0.3926502E-03 Eh
 * total energy  :   -42.1459278 Eh     change       -0.6041334E-03 Eh
 * total energy  :   -42.1468445 Eh     change       -0.9166538E-03 Eh
 * total energy  :   -42.1472174 Eh     change       -0.3729002E-03 Eh
 * total energy  :   -42.1474535 Eh     change       -0.2361036E-03 Eh
   *** GEOMETRY OPTIMIZATION CONVERGED AFTER 10 ITERATIONS ***

 final structure:
================
25
 xtb: 6.6.1 (8d0f1dd)
C            3.14326429291498        1.18199916227528       -0.16904569425701
N            2.15211585175902        0.14251903665556       -0.07008870626801
C            2.38389165430564       -1.12472487639029        0.23899606909752
N            1.21855499739674       -1.79138647249901        0.25893764525300
C            0.21348103918557       -0.91461373591650       -0.05415237559256
C            0.81219249971575        0.30659296543112       -0.27887276350496
C            0.14986748152499        1.60228391128376       -0.66609179424630
O            0.43901050579139        2.65736918934130       -0.14930325096186
N           -1.56585467720074        1.03429284473066        0.18025951150505
C           -2.21572692157620        1.98126984958531        0.70116949049126
C           -2.10355665636801       -0.27531168865246        0.07552191092970
O           -3.27097462804907       -0.53184805202516        0.10301190082185
N           -1.11861585854312       -1.23705645133763       -0.06399633479371
C           -1.51950965497125       -2.63283906747373       -0.13156309987135
H            3.95499980193756        0.98403514270799        0.52774910428788
H            3.54568183177812        1.22933233656300       -1.18268807414542
H            2.67774587427650        2.13927865572317        0.06668658638294
H            3.34555579525808       -1.55709147083400        0.43501950283904
H           -1.72654140607069        2.94911376022056        0.73654186309867
H           -0.33342903576047        1.52736700232394       -1.65471854152610
H           -3.21095858018429        1.86071290704674        1.11837731913006
H           -1.31772278461233       -3.14746520301793        0.80971218148165
H           -1.00838535381607       -3.13174520076178       -0.95427205997616
H           -2.59317838724366       -2.65937832801623       -0.31209915748205
H            1.10852383265233       -2.77446767536431        0.46608038520814

          :  Hamiltonian                  GFN2-xTB          :
         :: total energy             -42.147453454877 Eh    ::
         :: gradient norm              0.005066226534 Eh/a0 ::
         :: HOMO-LUMO gap              2.174560779789 eV    ::
         :: SCC energy               -42.682898739022 Eh    ::
         :: -> dispersion             -0.023178736416 Eh    ::
         :: repulsion energy           0.535270256139 Eh    ::

    * Orbital Energies and Occupations

         #    Occupation            Energy/Eh            Energy/eV
      -------------------------------------------------------------
         1        2.0000           -0.9110673             -24.7914
       ...           ...                  ...                  ...
        25        2.0000           -0.6722039             -18.2916
        26        2.0000           -0.6655347             -18.1101
        27        2.0000           -0.6538034             -17.7909
        28        2.0000           -0.6374806             -17.3467
        29        2.0000           -0.6355483             -17.2941
        30        2.0000           -0.6254864             -17.0204
        31        2.0000           -0.6239419             -16.9783
        32        2.0000           -0.6168495             -16.7853
        33        2.0000           -0.6125019             -16.6670
        34        2.0000           -0.5887111             -16.0196
        35        1.9997           -0.5593341             -15.2203
        36        1.9982           -0.5445975             -14.8193
        37        1.9881           -0.5294347             -14.4067 (HOMO)
        38        0.0137           -0.4495211             -12.2321 (LUMO)
        39        0.0003           -0.4191140             -11.4047
        40        0.0000           -0.3968094             -10.7977
        41                         -0.3374316              -9.1820
        42                         -0.3267416              -8.8911
        43                         -0.1903733              -5.1803
        44                         -0.1862054              -5.0669
        45                         -0.1410306              -3.8376
        46                         -0.0808618              -2.2004
        47                         -0.0679221              -1.8483
        48                         -0.0468357              -1.2745
       ...                                ...                  ...
        67                          0.5523438              15.0300
      -------------------------------------------------------------
                  HL-Gap            0.0799136 Eh            2.1746 eV

     #   Z          covCN         q      C6AA      α(0)
     1   6 C        3.693    -0.094    22.476     6.783
     2   7 N        2.856     0.091    19.672     6.587
     3   6 C        3.051     0.049    26.851     8.498
     4   7 N        2.813    -0.054    22.279     7.010
     5   6 C        3.037     0.106    25.622     8.302
     6   6 C        3.104    -0.006    28.037     8.676
     7   6 C        3.116     0.210    23.423     7.928
     8   8 O        0.856    -0.374    21.164     6.168
     9   7 N        2.187    -0.156    24.848     7.397
    10   6 C        2.794     0.068    26.458     8.426
    11   6 C        2.732     0.335    21.314     7.559
    12   8 O        0.858    -0.338    20.476     6.067
    13   7 N        2.739    -0.060    22.394     7.028
    14   6 C        3.700    -0.072    22.055     6.716
    15   1 H        0.925     0.104     1.750     2.069
    16   1 H        0.924     0.109     1.706     2.043
    17   1 H        0.924     0.136     1.490     1.909
    18   1 H        0.926     0.125     1.575     1.962
    19   1 H        0.925     0.141     1.453     1.885
    20   1 H        0.923     0.051     2.312     2.378
    21   1 H        0.925     0.118     1.628     1.995
    22   1 H        0.924     0.078     2.003     2.213
    23   1 H        0.925     0.080     1.980     2.200
    24   1 H        0.925     0.122     1.596     1.975
    25   1 H        0.860     0.231     0.961     1.536

Wiberg/Mayer (AO) data.
largest (>0.10) Wiberg bond orders for each atom

     #   Z sym  total        # sym  WBO       # sym  WBO       # sym  WBO
 ---------------------------------------------------------------------------
     1   6 C    3.917 --     2 N    0.984    15 H    0.970    17 H    0.959
                            16 H    0.955
     2   7 N    3.732 --     3 C    1.394     6 C    1.205     1 C    0.984
     3   6 C    3.928 --     2 N    1.394     4 N    1.307    18 H    0.952
     4   7 N    3.620 --     3 C    1.307     5 C    1.188    25 H    0.916
     5   6 C    3.950 --     6 C    1.437     4 N    1.188    13 N    1.129
     6   6 C    3.935 --     5 C    1.437     2 N    1.205     7 C    0.960
     7   6 C    3.949 --     8 O    1.741     6 C    0.960    20 H    0.911
                             9 N    0.270
     8   8 O    2.048 --     7 C    1.741     9 N    0.125
     9   7 N    3.395 --    10 C    1.870    11 C    0.992     7 C    0.270
                             8 O    0.125
    10   6 C    3.866 --     9 N    1.870    21 H    0.944    19 H    0.943
    11   6 C    3.955 --    12 O    1.753    13 N    1.116     9 N    0.992
    12   8 O    2.106 --    11 C    1.753    13 N    0.156
    13   7 N    3.547 --     5 C    1.129    11 C    1.116    14 C    0.973
                            12 O    0.156
    14   6 C    3.932 --    23 H    0.975    13 N    0.973    22 H    0.971
                            24 H    0.966
    15   1 H    0.988 --     1 C    0.970
    16   1 H    0.988 --     1 C    0.955
    17   1 H    0.981 --     1 C    0.959
    18   1 H    0.984 --     3 C    0.952
    19   1 H    0.979 --    10 C    0.943
    20   1 H    0.994 --     7 C    0.911
    21   1 H    0.984 --    10 C    0.944
    22   1 H    0.994 --    14 C    0.971
    23   1 H    0.992 --    14 C    0.975
    24   1 H    0.985 --    14 C    0.966
    25   1 H    0.946 --     4 N    0.916
 ---------------------------------------------------------------------------

molecular dipole:
                 x           y           z       tot (Debye)
 q only:        2.274      -1.701       0.265
   full:        2.253      -2.116       0.294       7.891

           -------------------------------------------------
          | TOTAL ENERGY              -42.147453454877 Eh   |
          | GRADIENT NORM               0.005066226534 Eh/α |
          | HOMO-LUMO GAP               2.174560779789 eV   |
           -------------------------------------------------

 * finished run on 2024/06/05 at 19:58:15.436
