   * xtb version 6.6.1 (8d0f1dd) compiled by 'conda@1efc2f54142f' on 2023-08-01
          program call               : xtb xtbopt.xyz --opt crude --input .xc2 --gfn2

   ID    Z sym.   atoms
    1    7 N      1, 17
    2    6 C      2-6, 8, 9, 11-16, 18-23, 25, 26, 28-33
    3    8 O      7, 10, 24, 27
    4    1 H      34-72

          :  Hamiltonian                  GFN2-xTB          :
 * total energy  :   -99.2541189 Eh     change       -0.2032152E-10 Eh
   *** GEOMETRY OPTIMIZATION CONVERGED AFTER 1 ITERATIONS ***

 final structure:
================
72
 xtb: 6.6.1 (8d0f1dd)
N           -1.88256656937929        2.82050871754632        2.18299173522152
C           -1.87926927152084        2.03184300326857        1.21602151718817
C           -3.04381991474182        1.81355295997888        0.28892580053530
C           -3.48019343188185        0.35781045973673        0.36568011299894
C           -4.39011536896448       -0.14932879896449       -0.56363755864317
C           -4.85058430495732       -1.45426962716247       -0.48713490531249
O           -5.73905653368985       -2.01814518150349       -1.32800095210608
C           -6.34086716025450       -1.23409528645529       -2.33097668419425
C           -4.37774304490811       -2.30507799264621        0.55115805802842
O           -4.87728646248514       -3.55329611101158        0.54868553253098
C           -4.52031250421803       -4.43941973549075        1.58529011491414
C           -3.47138656701226       -1.79412257067631        1.46828087197979
C           -3.03537629062329       -0.48032301904146        1.37854475140882
C           -2.52404851776914        2.14772380882212       -1.13382384448900
C           -1.52127158589059        1.12767352049821       -1.69267410308495
C           -0.16871719497477        1.25003287026788       -1.10374711244156
N            0.66618805626887        0.25885817667211       -0.89308133886197
C            2.01870371834409        0.50618126444046       -0.45667405914254
C            3.02023994722383        0.40950578333178       -1.61705335873260
C            4.42222070093341        0.34220642669406       -1.08065039078422
C            5.37760406340621        1.31617384636259       -1.37886180784855
C            6.66731035309909        1.23290887534310       -0.87945840825822
C            7.05981476543965        0.17901308042550       -0.06445052702142
O            8.27343979666749       -0.01067126532784        0.47134220077318
C            9.29690255060545        0.92441603425315        0.20942576938764
C            6.08710675753518       -0.83315131227509        0.25786534491587
O            6.48988877050223       -1.83043707045301        1.05191635494224
C            5.57775294626828       -2.89194325235355        1.24552957740021
C            4.83251170149075       -0.68141818759375       -0.26873116283723
C            0.30656251911628       -1.12250351171766       -1.09924704740608
C           -4.27833092935385        2.70327228293367        0.62346588263275
C           -4.84480736160769        2.37424306939592        2.00250339229390
C           -3.99061186255517        4.19912715305254        0.52895631347526
H           -4.75912241098790        0.48998808497631       -1.34853945181716
H           -6.87392476509908       -0.37859606131871       -1.90553553316807
H           -7.05294147161823       -1.89113608612294       -2.82646014902056
H           -5.60595685161888       -0.88277895457992       -3.06251207590975
H           -4.81393385736247       -4.04775503792818        2.56360056514838
H           -5.06731933351449       -5.35852879438092        1.38499366087133
H           -3.44626998356810       -4.64857864685959        1.58210355841626
H           -3.10558693296394       -2.40967135558465        2.27357874500508
H           -2.35815083121775       -0.11104308691175        2.13254216651099
H           -3.37570636059061        2.19873881454772       -1.81122333884345
H           -2.06016844108625        3.13434192533517       -1.11551925669495
H           -1.92122386112270        0.11949762305056       -1.58314714963142
H           -1.42189888922319        1.32135307203254       -2.76895076050456
H           -0.99591228125834        1.43933688350474        0.91100722841385
H            0.21463964369020        2.24939072642822       -0.94858495492015
H            2.28827609701937       -0.27708586063717        0.27770387407740
H            2.08687996333829        1.48765739930535        0.01471616350551
H            2.91122707467398        1.26585311394527       -2.28460143496970
H            2.81922757136012       -0.50250245251225       -2.18257081572337
H            5.10408745333742        2.14584138825646       -2.01387048471533
H            7.37441768980575        2.00479376333274       -1.13796038475983
H            9.02945027304613        1.91977488650421        0.57648948346893
H            9.52490410922822        0.97616552681129       -0.85889653643112
H           10.16913787945907        0.56164762862777        0.74964125224370
H            5.92916375738858       -3.44850939513316        2.11214662317156
H            4.56177908041241       -2.51488944540286        1.41409573747563
H            5.56481479764942       -3.54525308016781        0.36774764629766
H            2.49022278067805       -1.96563333011043        0.80537833483106
H            0.31444524158442       -1.37928955061305       -2.15990905113374
H           -0.68607033555594       -1.32652953496077       -0.69629682263594
H            1.03068148115618       -1.75289227690153       -0.57381443677566
H           -5.04465369190399        2.45801182406087       -0.12111021523566
H           -4.12539595886703        2.63392742557060        2.77279656040073
H           -5.08817714319152        1.31785112668171        2.08724188411643
H           -5.75223697341854        2.94827299956651        2.17018112097906
H           -3.18552218082169        4.47165661605644        1.20427324995458
H           -3.73250356368664        4.50163877075472       -0.48243154505031
H           -4.88000513978989        4.75063368667489        0.82235239336120
H           -1.03403980849158        2.91159077626212        2.73222892281721

          :  Hamiltonian                  GFN2-xTB          :
         :: total energy             -99.254118910855 Eh    ::
         :: gradient norm              0.005173138593 Eh/a0 ::
         :: HOMO-LUMO gap              0.558635431381 eV    ::
         :: SCC energy              -100.621983901876 Eh    ::
         :: -> dispersion             -0.077308627184 Eh    ::
         :: repulsion energy           1.366581693694 Eh    ::

    * Orbital Energies and Occupations

         #    Occupation            Energy/Eh            Energy/eV
      -------------------------------------------------------------
         1        2.0000           -0.8153486             -22.1868
       ...           ...                  ...                  ...
        78        1.9976           -0.5342672             -14.5382
        79        1.9974           -0.5334574             -14.5161
        80        1.9971           -0.5317903             -14.4707
        81        1.9961           -0.5270363             -14.3414
        82        1.9942           -0.5205667             -14.1653
        83        1.9933           -0.5182901             -14.1034
        84        1.9920           -0.5154289             -14.0255
        85        1.9729           -0.4960337             -13.4978
        86        1.9584           -0.4891061             -13.3093
        87        1.9163           -0.4776928             -12.9987
        88        1.8159           -0.4643556             -12.6358
        89        1.7564           -0.4593922             -12.5007
        90        1.4778           -0.4445823             -12.0977 (HOMO)
        91        0.8725           -0.4240528             -11.5391 (LUMO)
        92        0.2585           -0.3979103             -10.8277
        93        0.0107           -0.3453381              -9.3971
        94        0.0024           -0.3218238              -8.7573
        95        0.0020           -0.3189437              -8.6789
        96        0.0018           -0.3174939              -8.6394
        97        0.0010           -0.3082564              -8.3881
        98        0.0000           -0.1964471              -5.3456
        99        0.0000           -0.1882644              -5.1229
       100                         -0.1333855              -3.6296
       101                         -0.0742759              -2.0212
       ...                                ...                  ...
       171                          0.5699769              15.5099
      -------------------------------------------------------------
                  HL-Gap            0.0205295 Eh            0.5586 eV

     #   Z          covCN         q      C6AA      α(0)
     1   7 N        1.774    -0.262    27.633     7.784
     2   6 C        2.827     0.102    25.732     8.312
     3   6 C        3.907     0.007    20.406     6.421
     4   6 C        2.974     0.002    27.973     8.676
     5   6 C        2.919    -0.079    29.983     8.979
     6   6 C        2.862     0.132    25.118     8.215
     7   8 O        1.706    -0.224    17.710     5.682
     8   6 C        3.644     0.026    20.474     6.504
     9   6 C        2.864     0.132    25.101     8.212
    10   8 O        1.706    -0.220    17.652     5.673
    11   6 C        3.645     0.024    20.502     6.507
    12   6 C        2.913    -0.070    29.745     8.943
    13   6 C        2.921    -0.049    29.209     8.863
    14   6 C        3.813    -0.066    21.760     6.640
    15   6 C        3.802    -0.070    21.834     6.652
    16   6 C        2.846     0.017    27.622     8.613
    17   7 N        2.729     0.040    20.549     6.733
    18   6 C        3.758    -0.028    21.120     6.552
    19   6 C        3.807    -0.062    21.695     6.630
    20   6 C        2.964     0.020    27.569     8.612
    21   6 C        2.933    -0.042    29.051     8.839
    22   6 C        2.910    -0.071    29.761     8.945
    23   6 C        2.868     0.137    25.002     8.196
    24   8 O        1.706    -0.210    17.490     5.646
    25   6 C        3.646     0.023    20.527     6.511
    26   6 C        2.872     0.149    24.772     8.159
    27   8 O        1.705    -0.204    17.399     5.632
    28   6 C        3.657     0.023    20.483     6.496
    29   6 C        2.014    -0.085    33.359     9.328
    30   6 C        3.702    -0.078    22.153     6.730
    31   6 C        3.853    -0.008    20.676     6.467
    32   6 C        3.756    -0.118    22.824     6.812
    33   6 C        3.755    -0.120    22.860     6.817
    34   1 H        0.926     0.053     2.283     2.363
    35   1 H        0.924     0.056     2.250     2.346
    36   1 H        0.925     0.084     1.940     2.178
    37   1 H        0.924     0.050     2.322     2.383
    38   1 H        0.924     0.058     2.217     2.329
    39   1 H        0.925     0.084     1.937     2.176
    40   1 H        0.924     0.055     2.259     2.350
    41   1 H        0.926     0.059     2.207     2.323
    42   1 H        0.926     0.045     2.379     2.412
    43   1 H        0.925     0.062     2.173     2.305
    44   1 H        0.924     0.057     2.236     2.339
    45   1 H        0.925     0.071     2.072     2.251
    46   1 H        0.923     0.086     1.918     2.166
    47   1 H        0.922     0.010     2.883     2.655
    48   1 H        0.925     0.077     2.012     2.218
    49   1 H        0.922     0.114     1.660     2.015
    50   1 H        0.924     0.063     2.166     2.302
    51   1 H        0.924     0.052     2.297     2.370
    52   1 H        0.924     0.069     2.092     2.262
    53   1 H        0.926     0.061     2.190     2.314
    54   1 H        0.926     0.067     2.117     2.275
    55   1 H        0.924     0.059     2.208     2.324
    56   1 H        0.924     0.060     2.195     2.317
    57   1 H        0.925     0.087     1.906     2.159
    58   1 H        0.925     0.080     1.977     2.199
    59   1 H        0.924     0.077     2.011     2.218
    60   1 H        0.924     0.063     2.162     2.300
    61   1 H        0.000    -0.314    62.569    14.464
    62   1 H        0.924     0.080     1.975     2.198
    63   1 H        0.924     0.077     2.014     2.219
    64   1 H        0.924     0.112     1.681     2.028
    65   1 H        0.924     0.039     2.458     2.452
    66   1 H        0.925     0.069     2.099     2.266
    67   1 H        0.925     0.036     2.496     2.471
    68   1 H        0.925     0.053     2.278     2.360
    69   1 H        0.925     0.064     2.150     2.293
    70   1 H        0.925     0.036     2.497     2.471
    71   1 H        0.925     0.057     2.232     2.336
    72   1 H        0.860     0.162     1.325     1.803

Wiberg/Mayer (AO) data.
largest (>0.10) Wiberg bond orders for each atom

     #   Z sym  total        # sym  WBO       # sym  WBO       # sym  WBO
 ---------------------------------------------------------------------------
     1   7 N    3.038 --     2 C    1.960    72 H    0.939
     2   6 C    3.934 --     1 N    1.960     3 C    0.993    47 H    0.902
     3   6 C    3.973 --     2 C    0.993     4 C    0.971    14 C    0.955
                            31 C    0.942
     4   6 C    3.936 --    13 C    1.405     5 C    1.372     3 C    0.971
     5   6 C    3.956 --     6 C    1.395     4 C    1.372    34 H    0.957
     6   6 C    3.893 --     5 C    1.395     9 C    1.214     7 O    1.106
     7   8 O    2.252 --     6 C    1.106     8 C    0.977
     8   6 C    3.929 --     7 O    0.977    36 H    0.976    35 H    0.973
                            37 H    0.972
     9   6 C    3.889 --    12 C    1.382     6 C    1.214    10 O    1.113
    10   8 O    2.253 --     9 C    1.113    11 C    0.975
    11   6 C    3.926 --    39 H    0.976    10 O    0.975    38 H    0.972
                            40 H    0.972
    12   6 C    3.955 --    13 C    1.414     9 C    1.382    41 H    0.963
    13   6 C    3.944 --    12 C    1.414     4 C    1.405    42 H    0.961
    14   6 C    3.979 --    15 C    0.990    44 H    0.971    43 H    0.968
                             3 C    0.955
    15   6 C    3.986 --    16 C    1.059    14 C    0.990    45 H    0.954
                            46 H    0.922
    16   6 C    3.693 --    17 N    1.480    15 C    1.059    48 H    0.955
    17   7 N    3.564 --    16 C    1.480    30 C    0.996    18 C    0.986
    18   6 C    3.903 --    17 N    0.986    19 C    0.969    50 H    0.968
                            49 H    0.900
    19   6 C    3.967 --    20 C    1.000    51 H    0.974    18 C    0.969
                            52 H    0.960
    20   6 C    3.902 --    29 C    1.424    21 C    1.335    19 C    1.000
    21   6 C    3.868 --    22 C    1.427    20 C    1.335    53 H    0.955
    22   6 C    3.947 --    21 C    1.427    23 C    1.378    54 H    0.956
    23   6 C    3.823 --    22 C    1.378    26 C    1.152    24 O    1.123
    24   8 O    2.250 --    23 C    1.123    25 C    0.969
    25   6 C    3.917 --    57 H    0.976    55 H    0.971    56 H    0.971
                            24 O    0.969
    26   6 C    3.852 --    29 C    1.400    23 C    1.152    27 O    1.128
    27   8 O    2.248 --    26 C    1.128    28 C    0.967
    28   6 C    3.894 --    58 H    0.977    60 H    0.968    27 O    0.967
                            59 H    0.954
    29   6 C    3.112 --    20 C    1.424    26 C    1.400
    30   6 C    3.930 --    17 N    0.996    63 H    0.964    62 H    0.961
                            64 H    0.948
    31   6 C    3.969 --    33 C    1.008    32 C    1.008    65 H    0.959
                             3 C    0.942
    32   6 C    3.975 --    31 C    1.008    67 H    0.981    68 H    0.980
                            66 H    0.973
    33   6 C    3.978 --    31 C    1.008    70 H    0.982    71 H    0.979
                            69 H    0.974
    34   1 H    0.996 --     5 C    0.957
    35   1 H    0.992 --     8 C    0.973
    36   1 H    0.992 --     8 C    0.976
    37   1 H    0.992 --     8 C    0.972
    38   1 H    0.990 --    11 C    0.972
    39   1 H    0.992 --    11 C    0.976
    40   1 H    0.991 --    11 C    0.972
    41   1 H    0.994 --    12 C    0.963
    42   1 H    0.997 --    13 C    0.961
    43   1 H    0.995 --    14 C    0.968
    44   1 H    0.996 --    14 C    0.971
    45   1 H    0.993 --    15 C    0.954
    46   1 H    0.973 --    15 C    0.922
    47   1 H    0.983 --     2 C    0.902
    48   1 H    0.994 --    16 C    0.955
    49   1 H    0.983 --    18 C    0.900
    50   1 H    0.994 --    18 C    0.968
    51   1 H    0.995 --    19 C    0.974
    52   1 H    0.991 --    19 C    0.960
    53   1 H    0.983 --    21 C    0.955
    54   1 H    0.987 --    22 C    0.956
    55   1 H    0.989 --    25 C    0.971
    56   1 H    0.989 --    25 C    0.971
    57   1 H    0.991 --    25 C    0.976
    58   1 H    0.991 --    28 C    0.977
    59   1 H    0.987 --    28 C    0.954
    60   1 H    0.984 --    28 C    0.968
    61   1 H    0.179
    62   1 H    0.985 --    30 C    0.961
    63   1 H    0.990 --    30 C    0.964
    64   1 H    0.987 --    30 C    0.948
    65   1 H    0.990 --    31 C    0.959
    66   1 H    0.990 --    32 C    0.973
    67   1 H    0.996 --    32 C    0.981
    68   1 H    0.993 --    32 C    0.980
    69   1 H    0.991 --    33 C    0.974
    70   1 H    0.996 --    33 C    0.982
    71   1 H    0.992 --    33 C    0.979
    72   1 H    0.968 --     1 N    0.939
 ---------------------------------------------------------------------------

molecular dipole:
                 x           y           z       tot (Debye)
 q only:        0.196       1.042      -1.479
   full:        0.586       1.113      -1.698       5.371

           -------------------------------------------------
          | TOTAL ENERGY              -99.254118910855 Eh   |
          | GRADIENT NORM               0.005173138593 Eh/α |
          | HOMO-LUMO GAP               0.558635431381 eV   |
           -------------------------------------------------

 * finished run on 2024/04/06 at 11:14:27.562
