   * xtb version 6.6.1 (8d0f1dd) compiled by 'conda@1efc2f54142f' on 2023-08-01
          program call               : xtb struc.xyz --opt loose --input .xc1 --gfn2

   ID    Z sym.   atoms
    1    6 C      1, 3, 5-7, 10, 11, 14
    2    7 N      2, 4, 9, 13
    3    8 O      8, 12
    4    1 H      15-25
constraining bond 8 21 to    4.6333300 Å, actual value:    3.5021541 Å

          :  Hamiltonian                  GFN2-xTB          :
 * total energy  :   -44.5447438 Eh     change       -0.2401990E-09 Eh
 * total energy  :   -48.4323675 Eh     change       -0.3887624E+01 Eh
 * total energy  :   -54.1626405 Eh     change       -0.5730273E+01 Eh
 * total energy  :   -61.8660563 Eh     change       -0.7703416E+01 Eh
 * total energy  :   -70.9155435 Eh     change       -0.9049487E+01 Eh
 * total energy  :   -54.2497363 Eh     change        0.1666581E+02 Eh
 * total energy  :   -67.0485676 Eh     change       -0.1279883E+02 Eh
 * total energy  :   -67.6034512 Eh     change       -0.5548837E+00 Eh
 * total energy  :   -69.4158929 Eh     change       -0.1812442E+01 Eh
 * total energy  :   -70.0307345 Eh     change       -0.6148416E+00 Eh
 * total energy  :   -72.2290690 Eh     change       -0.4968640E-04 Eh
 * total energy  :   -72.2291164 Eh     change       -0.4736215E-04 Eh
 * total energy  :   -72.2291589 Eh     change       -0.4254832E-04 Eh
 * total energy  :   -72.2292088 Eh     change       -0.4980869E-04 Eh
 * total energy  :   -72.2292636 Eh     change       -0.5480694E-04 Eh
 * total energy  :   -72.2292987 Eh     change       -0.3517764E-04 Eh
 * total energy  :   -72.2283808 Eh     change        0.9179873E-03 Eh
 * total energy  :   -72.2293314 Eh     change       -0.9506732E-03 Eh
 * total energy  :   -72.2293458 Eh     change       -0.1440720E-04 Eh
   *** GEOMETRY OPTIMIZATION CONVERGED AFTER 70 ITERATIONS ***

 final structure:
================
25
 xtb: 6.6.1 (8d0f1dd)
C            3.28730620576581        1.04676098246853       -0.00189842685384
N            2.33206244273205       -0.02372049273153       -0.01971908945802
C            2.59017215803723       -1.33753035131693        0.00292186048520
N            1.42268939235260       -2.03792295347172       -0.00824735288351
C            0.39975931415961       -1.14384736108794       -0.03618973034818
C            0.96454624475306        0.14348695988167       -0.03954796080203
C            0.16545161250963        1.28287076587587       -0.06035986661049
O           -1.62971006555750        3.12576309512644        0.91647495075968
N           -1.15797036497271        1.03720353091925       -0.07250635791680
C           -2.05283425025268        2.21986062160672       -0.03380608571600
C           -1.78271189110734       -0.21229055426765       -0.08888275733218
O           -2.97910644559920       -0.34049243459585       -0.12363796642991
N           -0.93405459791667       -1.33459699707935       -0.06962528653675
C           -1.52162870763296       -2.65839991797862       -0.10011350424128
H            3.59608334477437        1.26934639465869        1.02175823047050
H            4.16675950222340        0.77788767700796       -0.58487463288696
H            2.81980756120580        1.93463853542927       -0.42399924209622
H            3.56454936126957       -1.78000750729794        0.02693689417415
H           -2.05241661903446        2.65969971425914       -1.04685600822213
H           -3.06147406438375        1.85279448330083        0.19423928507521
H           -1.28238716246734        3.33641704343587        0.90440747665815
H           -1.22321655851664       -3.22897891114734        0.77990643663134
H           -1.22253386970200       -3.18619210940754       -1.00677246387223
H           -2.60431601740664       -2.53904005553221       -0.09850421651687
H            1.35560498886661       -3.04547161645618        0.00006743236816

          :  Hamiltonian                  GFN2-xTB          :
         :: total energy             -72.229345834365 Eh    ::
         :: gradient norm              0.003254487816 Eh/a0 ::
         :: HOMO-LUMO gap              1.791826257852 eV    ::
         :: SCC energy               -42.719942530133 Eh    ::
         :: -> dispersion             -0.022117348864 Eh    ::
         :: repulsion energy           2.392612054922 Eh    ::

    * Orbital Energies and Occupations

         #    Occupation            Energy/Eh            Energy/eV
      -------------------------------------------------------------
         1        2.0000           -0.8958173             -24.3764
       ...           ...                  ...                  ...
        25        1.9994           -0.6670665             -18.1518
        26        1.9993           -0.6610836             -17.9890
        27        1.9989           -0.6518339             -17.7373
        28        1.9975           -0.6310081             -17.1706
        29        1.9972           -0.6289373             -17.1143
        30        1.9965           -0.6235125             -16.9666
        31        1.9948           -0.6138120             -16.7027
        32        1.9921           -0.6039689             -16.4348
        33        1.9852           -0.5891163             -16.0307
        34        1.9727           -0.5743226             -15.6281
        35        1.9527           -0.5610718             -15.2675
        36        1.9274           -0.5505611             -14.9815
        37        1.6322           -0.5080861             -13.8257 (HOMO)
        38        0.4343           -0.4422377             -12.0339 (LUMO)
        39        0.0933           -0.4010419             -10.9129
        40        0.0274           -0.3711513             -10.0995
        41        0.0007           -0.2839762              -7.7274
        42        0.0000           -0.2026211              -5.5136
        43        0.0000           -0.1872282              -5.0947
        44        0.0000           -0.1360777              -3.7029
        45        0.0000           -0.1236305              -3.3642
        46                         -0.0691201              -1.8809
        47                         -0.0433134              -1.1786
        48                         -0.0279903              -0.7617
       ...                                ...                  ...
        67                          5.2186002             142.0053
      -------------------------------------------------------------
                  HL-Gap            0.0658484 Eh            1.7918 eV

     #   Z          covCN         q      C6AA      α(0)
     1   6 C        3.691    -0.085    22.319     6.761
     2   7 N        2.820     0.056    20.254     6.684
     3   6 C        3.036     0.041    27.040     8.529
     4   7 N        2.774    -0.065    22.501     7.045
     5   6 C        3.038     0.106    25.622     8.302
     6   6 C        3.102     0.026    27.302     8.562
     7   6 C        1.923    -0.104    33.977     9.414
     8   8 O        1.662    -0.409    21.017     6.189
     9   7 N        2.753    -0.038    21.975     6.962
    10   6 C        3.673     0.122    18.806     6.215
    11   6 C        2.721     0.308    21.761     7.637
    12   8 O        0.859    -0.366    21.005     6.145
    13   7 N        2.738    -0.043    22.074     6.978
    14   6 C        3.697    -0.070    22.015     6.711
    15   1 H        0.924     0.106     1.732     2.058
    16   1 H        0.925     0.100     1.781     2.087
    17   1 H        0.925     0.116     1.646     2.007
    18   1 H        0.926     0.113     1.673     2.023
    19   1 H        0.923     0.084     1.941     2.179
    20   1 H        0.924     0.119     1.620     1.991
    21   1 H        0.855     0.366     0.546     1.158
    22   1 H        0.924     0.084     1.936     2.176
    23   1 H        0.924     0.085     1.933     2.174
    24   1 H        0.925     0.126     1.566     1.957
    25   1 H        0.860     0.221     1.007     1.572

Wiberg/Mayer (AO) data.
largest (>0.10) Wiberg bond orders for each atom

     #   Z sym  total        # sym  WBO       # sym  WBO       # sym  WBO
 ---------------------------------------------------------------------------
     1   6 C    3.923 --     2 N    0.994    16 H    0.968    17 H    0.967
                            15 H    0.954
     2   7 N    3.583 --     3 C    1.336     6 C    1.129     1 C    0.994
     3   6 C    3.705 --     2 N    1.336     4 N    1.237    18 H    0.956
     4   7 N    3.546 --     3 C    1.237     5 C    1.200    25 H    0.921
     5   6 C    3.821 --     6 C    1.247    13 N    1.206     4 N    1.200
     6   6 C    3.864 --     7 C    1.277     5 C    1.247     2 N    1.129
     7   6 C    2.707 --     9 N    1.290     6 C    1.277
     8   8 O    1.999 --    10 C    1.055    21 H    0.860
     9   7 N    3.523 --     7 C    1.290    11 C    1.080    10 C    0.924
                            12 O    0.113
    10   6 C    3.891 --     8 O    1.055    20 H    0.941    19 H    0.934
                             9 N    0.924
    11   6 C    3.905 --    12 O    1.677     9 N    1.080    13 N    1.057
    12   8 O    1.993 --    11 C    1.677    13 N    0.119     9 N    0.113
    13   7 N    3.507 --     5 C    1.206    11 C    1.057    14 C    0.976
                            12 O    0.119
    14   6 C    3.917 --    13 N    0.976    22 H    0.967    23 H    0.966
                            24 H    0.962
    15   1 H    0.978 --     1 C    0.954
    16   1 H    0.985 --     1 C    0.968
    17   1 H    0.984 --     1 C    0.967
    18   1 H    0.986 --     3 C    0.956
    19   1 H    0.969 --    10 C    0.934
    20   1 H    0.972 --    10 C    0.941
    21   1 H    0.865 --     8 O    0.860
    22   1 H    0.986 --    14 C    0.967
    23   1 H    0.985 --    14 C    0.966
    24   1 H    0.982 --    14 C    0.962
    25   1 H    0.949 --     4 N    0.921
 ---------------------------------------------------------------------------

molecular dipole:
                 x           y           z       tot (Debye)
 q only:        2.547      -1.206      -0.206
   full:        2.892      -1.833      -0.271       8.730

           -------------------------------------------------
          | TOTAL ENERGY              -72.229345834365 Eh   |
          | GRADIENT NORM               0.003254487816 Eh/α |
          | HOMO-LUMO GAP               1.791826257852 eV   |
           -------------------------------------------------

 * finished run on 2024/06/05 at 19:59:01.933
