   * xtb version 6.6.1 (8d0f1dd) compiled by 'conda@1efc2f54142f' on 2023-08-01
          program call               : xtb xtbopt.xyz --opt crude --input .xc2 --gfn2

   ID    Z sym.   atoms
    1    6 C      1, 3, 5-7, 10, 11, 14
    2    7 N      2, 4, 9, 13
    3    8 O      8, 12
    4    1 H      15-25
########################################################################
[WARNING] Please study the warnings concerning your input carefully
-1- readin_getIntValue: could not parse ''
########################################################################

          :  Hamiltonian                  GFN2-xTB          :
 * total energy  :   -40.3272258 Eh     change       -0.4618528E-12 Eh
 * total energy  :   -42.1617183 Eh     change       -0.1834492E+01 Eh
 * total energy  :   -42.1799881 Eh     change       -0.1826981E-01 Eh
 * total energy  :   -42.1814748 Eh     change       -0.1486618E-02 Eh
 * total energy  :   -42.1822949 Eh     change       -0.8201179E-03 Eh
 * total energy  :   -42.1829140 Eh     change       -0.6191178E-03 Eh
 * total energy  :   -42.1838811 Eh     change       -0.9671448E-03 Eh
 * total energy  :   -42.1845688 Eh     change       -0.6876912E-03 Eh
 * total energy  :   -42.1848875 Eh     change       -0.3186497E-03 Eh
   *** GEOMETRY OPTIMIZATION CONVERGED AFTER 9 ITERATIONS ***

 final structure:
================
25
 xtb: 6.6.1 (8d0f1dd)
C            3.27493989654032        1.05453397225055       -0.01775087633165
N            2.32045470111928       -0.01644091459216       -0.04091380410411
C            2.58368548197972       -1.32891365085242       -0.02284137720133
N            1.41940615358024       -2.03376080150358       -0.02541001533037
C            0.39260884529903       -1.14383393238396       -0.04267288209142
C            0.95214841524463        0.14600769589672       -0.05188180428898
C            0.14878906362150        1.28176975851083       -0.08630102292129
O           -1.89693058173750        2.92693202861731        1.08387755646006
N           -1.17455386459438        1.03049540037018       -0.11297216040373
C           -2.05952449115736        2.20628764841917       -0.08317846239858
C           -1.79510896736321       -0.22294097820281       -0.11843883282315
O           -2.98731704006855       -0.36113191833307       -0.18116984004553
N           -0.93945648280851       -1.34134145442268       -0.06458289705121
C           -1.51894772829210       -2.66868311636689       -0.03920477283115
H            3.56523656972922        1.28714642309189        1.00935430923641
H            4.16421204660761        0.77902589132912       -0.58190830501439
H            2.81652127602606        1.93873033914335       -0.45715384560049
H            3.56045474279359       -1.76617629193172       -0.01428713675734
H           -1.83460318513901        2.81198868513023       -0.96679429992133
H           -3.09328122333159        1.85640837843761       -0.11307748459935
H           -1.05682900742565        3.41271504183538        1.07498176027479
H           -1.21705078177070       -3.19635382366512        0.86634292124173
H           -1.21529606101438       -3.23525377528575       -0.92064825838549
H           -2.60265997026351       -2.55774603050182       -0.04429979277332
H            1.35353370652511       -3.04122603339091       -0.01789705843984

          :  Hamiltonian                  GFN2-xTB          :
         :: total energy             -42.184887472237 Eh    ::
         :: gradient norm              0.009889705622 Eh/a0 ::
         :: HOMO-LUMO gap              1.796582408816 eV    ::
         :: SCC energy               -42.687926781789 Eh    ::
         :: -> dispersion             -0.022125632761 Eh    ::
         :: repulsion energy           0.502929200007 Eh    ::

    * Orbital Energies and Occupations

         #    Occupation            Energy/Eh            Energy/eV
      -------------------------------------------------------------
         1        2.0000           -0.8973448             -24.4180
       ...           ...                  ...                  ...
        25        1.9993           -0.6650705             -18.0975
        26        1.9993           -0.6645859             -18.0843
        27        1.9989           -0.6529609             -17.7680
        28        1.9975           -0.6333034             -17.2331
        29        1.9969           -0.6285699             -17.1043
        30        1.9963           -0.6238166             -16.9749
        31        1.9946           -0.6150279             -16.7358
        32        1.9921           -0.6060168             -16.4906
        33        1.9837           -0.5886500             -16.0180
        34        1.9734           -0.5769048             -15.6984
        35        1.9565           -0.5650163             -15.3749
        36        1.9303           -0.5534714             -15.0607
        37        1.6328           -0.5100391             -13.8789 (HOMO)
        38        0.4325           -0.4440159             -12.0823 (LUMO)
        39        0.0910           -0.4023068             -10.9473
        40        0.0259           -0.3716953             -10.1143
        41        0.0007           -0.2855938              -7.7714
        42        0.0000           -0.2005739              -5.4579
        43        0.0000           -0.1882990              -5.1239
        44        0.0000           -0.1356017              -3.6899
        45        0.0000           -0.1203518              -3.2749
        46                         -0.0706166              -1.9216
        47                         -0.0481632              -1.3106
        48                         -0.0424387              -1.1548
       ...                                ...                  ...
        67                          0.5284119              14.3788
      -------------------------------------------------------------
                  HL-Gap            0.0660232 Eh            1.7966 eV

     #   Z          covCN         q      C6AA      α(0)
     1   6 C        3.691    -0.085    22.316     6.760
     2   7 N        2.820     0.056    20.259     6.685
     3   6 C        3.037     0.042    27.022     8.526
     4   7 N        2.774    -0.065    22.496     7.044
     5   6 C        3.039     0.107    25.597     8.298
     6   6 C        3.102     0.026    27.296     8.561
     7   6 C        1.926    -0.109    34.110     9.432
     8   8 O        1.657    -0.377    20.414     6.099
     9   7 N        2.753    -0.037    21.960     6.960
    10   6 C        3.634     0.128    18.853     6.249
    11   6 C        2.720     0.312    21.700     7.626
    12   8 O        0.859    -0.358    20.857     6.123
    13   7 N        2.737    -0.044    22.084     6.980
    14   6 C        3.697    -0.069    22.007     6.710
    15   1 H        0.924     0.106     1.732     2.058
    16   1 H        0.925     0.101     1.777     2.085
    17   1 H        0.925     0.115     1.656     2.012
    18   1 H        0.927     0.113     1.670     2.021
    19   1 H        0.924     0.077     2.014     2.219
    20   1 H        0.924     0.119     1.622     1.991
    21   1 H        0.804     0.325     0.650     1.266
    22   1 H        0.924     0.085     1.931     2.173
    23   1 H        0.924     0.084     1.935     2.175
    24   1 H        0.925     0.126     1.564     1.956
    25   1 H        0.860     0.221     1.004     1.570

Wiberg/Mayer (AO) data.
largest (>0.10) Wiberg bond orders for each atom

     #   Z sym  total        # sym  WBO       # sym  WBO       # sym  WBO
 ---------------------------------------------------------------------------
     1   6 C    3.924 --     2 N    0.994    16 H    0.968    17 H    0.967
                            15 H    0.954
     2   7 N    3.584 --     3 C    1.337     6 C    1.128     1 C    0.994
     3   6 C    3.707 --     2 N    1.337     4 N    1.238    18 H    0.956
     4   7 N    3.548 --     3 C    1.238     5 C    1.200    25 H    0.921
     5   6 C    3.823 --     6 C    1.245    13 N    1.210     4 N    1.200
     6   6 C    3.863 --     7 C    1.279     5 C    1.245     2 N    1.128
     7   6 C    2.709 --     9 N    1.289     6 C    1.279
     8   8 O    1.992 --    10 C    1.046    21 H    0.875
     9   7 N    3.520 --     7 C    1.289    11 C    1.077    10 C    0.928
                            12 O    0.113
    10   6 C    3.898 --     8 O    1.046    20 H    0.945    19 H    0.945
                             9 N    0.928
    11   6 C    3.906 --    12 O    1.686     9 N    1.077    13 N    1.052
    12   8 O    2.001 --    11 C    1.686    13 N    0.119     9 N    0.113
    13   7 N    3.506 --     5 C    1.210    11 C    1.052    14 C    0.977
                            12 O    0.119
    14   6 C    3.916 --    13 N    0.977    22 H    0.967    23 H    0.966
                            24 H    0.962
    15   1 H    0.978 --     1 C    0.954
    16   1 H    0.985 --     1 C    0.968
    17   1 H    0.984 --     1 C    0.967
    18   1 H    0.986 --     3 C    0.956
    19   1 H    0.975 --    10 C    0.945
    20   1 H    0.978 --    10 C    0.945
    21   1 H    0.891 --     8 O    0.875
    22   1 H    0.985 --    14 C    0.967
    23   1 H    0.985 --    14 C    0.966
    24   1 H    0.981 --    14 C    0.962
    25   1 H    0.949 --     4 N    0.921
 ---------------------------------------------------------------------------

molecular dipole:
                 x           y           z       tot (Debye)
 q only:        2.847      -1.102      -0.257
   full:        3.191      -1.767      -0.368       9.318

           -------------------------------------------------
          | TOTAL ENERGY              -42.184887472237 Eh   |
          | GRADIENT NORM               0.009889705622 Eh/α |
          | HOMO-LUMO GAP               1.796582408816 eV   |
           -------------------------------------------------

 * finished run on 2024/06/05 at 19:59:02.292
