   * xtb version 6.6.1 (8d0f1dd) compiled by 'conda@1efc2f54142f' on 2023-08-01
          program call               : xtb struc.xyz --opt loose --input .xc1 --gfn2

   ID    Z sym.   atoms
    1    6 C      1, 3, 5-7, 10, 11, 14
    2    7 N      2, 4, 9, 13
    3    8 O      8, 12
    4    1 H      15-25
constraining bond 13 14 to    3.9200000 Å, actual value:    1.4502802 Å

          :  Hamiltonian                  GFN2-xTB          :
 * total energy  :   -20.4660962 Eh     change       -0.6650680E-10 Eh
 * total energy  :   -29.8954313 Eh     change       -0.9429335E+01 Eh
 * total energy  :   -36.3861509 Eh     change       -0.6490720E+01 Eh
 * total energy  :   -40.0794444 Eh     change       -0.3693293E+01 Eh
 * total energy  :   -41.3955177 Eh     change       -0.1316073E+01 Eh
 * total energy  :   -41.5589444 Eh     change       -0.1634267E+00 Eh
 * total energy  :   -41.5777477 Eh     change       -0.1880335E-01 Eh
 * total energy  :   -41.6272584 Eh     change       -0.4951063E-01 Eh
 * total energy  :   -41.6691581 Eh     change       -0.4189979E-01 Eh
 * total energy  :   -41.7138418 Eh     change       -0.4468361E-01 Eh
 * total energy  :   -42.1932668 Eh     change       -0.4609542E-02 Eh
 * total energy  :   -42.1931344 Eh     change        0.1324166E-03 Eh
 * total energy  :   -42.1988056 Eh     change       -0.5671208E-02 Eh
 * total energy  :   -42.2004610 Eh     change       -0.1655393E-02 Eh
 * total energy  :   -42.2008830 Eh     change       -0.4219803E-03 Eh
 * total energy  :   -42.2010635 Eh     change       -0.1805580E-03 Eh
 * total energy  :   -42.2012045 Eh     change       -0.1409777E-03 Eh
 * total energy  :   -42.2012893 Eh     change       -0.8482522E-04 Eh
 * total energy  :   -42.2013375 Eh     change       -0.4821527E-04 Eh
   *** GEOMETRY OPTIMIZATION CONVERGED AFTER 100 ITERATIONS ***

 final structure:
================
25
 xtb: 6.6.1 (8d0f1dd)
C            3.14075134817763        1.97181437926444       -0.02574787162736
N            2.68610546977200        0.61380964074857        0.11595327617902
C            3.42845231731576       -0.47091416760495        0.30126685689884
N            2.64745978767741       -1.56582517297637        0.37121883229000
C            1.34763082661804       -1.16837681930893        0.22396455760335
C            1.37560374582308        0.21212423535168        0.06137943429083
C            0.15025227990508        0.93326102534175       -0.09178754687156
O            0.03197767463908        2.13019287578881       -0.21791366356339
N           -0.97949562615222        0.06381620029295       -0.07371636564367
C           -2.24226468133491        0.78741964544093       -0.17937952300180
C           -0.93362949691576       -1.30680160340977        0.05491334726747
O           -2.04824574311246       -2.03176434292626        0.02902733845700
N            0.27717298664582       -1.93140885749254        0.22397680436693
C           -3.60529924089472       -1.83684825388073       -0.18261719657420
H            3.78486684668701        2.24725873071521        0.80836660369629
H            3.69725840775491        2.09077315419259       -0.95605663056041
H            2.26953583976173        2.62589686935955       -0.04738591671398
H            4.49801426513359       -0.47424279905066        0.38523195088736
H           -1.99161025372162        1.83987530767171       -0.32022534810316
H           -2.81759469483780        0.45394607052849       -1.03744765151318
H           -2.81209036205594        0.69546119960174        0.74287761265922
H           -3.94286007028265       -2.83863639598363        0.06018476983001
H           -3.76248982000398       -1.60631732658395       -1.23125978373782
H           -3.99183605538402       -1.09762003321471        0.50498698833569
H            2.95276576288189       -2.51865502031286        0.51136074305808

          :  Hamiltonian                  GFN2-xTB          :
         :: total energy             -42.201337548111 Eh    ::
         :: gradient norm              0.003515074495 Eh/a0 ::
         :: HOMO-LUMO gap              3.204138308121 eV    ::
         :: SCC energy               -42.707452341417 Eh    ::
         :: -> dispersion             -0.021948394568 Eh    ::
         :: repulsion energy           0.505285080650 Eh    ::

    * Orbital Energies and Occupations

         #    Occupation            Energy/Eh            Energy/eV
      -------------------------------------------------------------
         1        2.0000           -0.8944998             -24.3406
       ...           ...                  ...                  ...
        25        2.0000           -0.6631854             -18.0462
        26        2.0000           -0.6488615             -17.6564
        27        2.0000           -0.6478250             -17.6282
        28        1.9999           -0.6437612             -17.5176
        29        1.9998           -0.6278376             -17.0843
        30        1.9998           -0.6208570             -16.8944
        31        1.9996           -0.6143904             -16.7184
        32        1.9994           -0.6063718             -16.5002
        33        1.9989           -0.5969244             -16.2431
        34        1.9942           -0.5702312             -15.5168
        35        1.9893           -0.5603453             -15.2478
        36        1.9729           -0.5455632             -14.8455
        37        1.9640           -0.5409873             -14.7210 (HOMO)
        38        0.0623           -0.4232374             -11.5169 (LUMO)
        39        0.0177           -0.4029460             -10.9647
        40        0.0021           -0.3688429             -10.0367
        41        0.0001           -0.3119877              -8.4896
        42        0.0000           -0.2729699              -7.4279
        43                         -0.1861956              -5.0666
        44                         -0.1719162              -4.6781
        45                         -0.1207418              -3.2856
        46                         -0.0801047              -2.1798
        47                         -0.0552214              -1.5026
        48                         -0.0316874              -0.8623
       ...                                ...                  ...
        67                          0.5373061              14.6208
      -------------------------------------------------------------
                  HL-Gap            0.1177499 Eh            3.2041 eV

     #   Z          covCN         q      C6AA      α(0)
     1   6 C        3.691    -0.092    22.443     6.779
     2   7 N        2.828     0.080    19.848     6.617
     3   6 C        3.069     0.060    26.594     8.456
     4   7 N        2.797    -0.052    22.244     7.005
     5   6 C        3.071     0.148    24.714     8.151
     6   6 C        3.132    -0.028    28.490     8.738
     7   6 C        2.775     0.271    22.417     7.755
     8   8 O        0.858    -0.381    21.309     6.189
     9   7 N        2.740    -0.087    22.942     7.114
    10   6 C        3.703    -0.065    21.910     6.692
    11   6 C        2.743     0.305    21.822     7.649
    12   8 O        1.651    -0.236    17.925     5.715
    13   7 N        1.831    -0.260    27.615     7.787
    14   6 C        3.572     0.002    21.338     6.718
    15   1 H        0.925     0.103     1.758     2.074
    16   1 H        0.924     0.105     1.738     2.062
    17   1 H        0.925     0.132     1.521     1.929
    18   1 H        0.926     0.123     1.590     1.972
    19   1 H        0.924     0.123     1.592     1.973
    20   1 H        0.925     0.082     1.957     2.188
    21   1 H        0.925     0.079     1.993     2.208
    22   1 H        0.925     0.133     1.511     1.922
    23   1 H        0.925     0.109     1.705     2.042
    24   1 H        0.926     0.109     1.706     2.043
    25   1 H        0.860     0.238     0.933     1.513

Wiberg/Mayer (AO) data.
largest (>0.10) Wiberg bond orders for each atom

     #   Z sym  total        # sym  WBO       # sym  WBO       # sym  WBO
 ---------------------------------------------------------------------------
     1   6 C    3.920 --     2 N    0.985    15 H    0.964    17 H    0.963
                            16 H    0.958
     2   7 N    3.694 --     3 C    1.396     6 C    1.159     1 C    0.985
     3   6 C    3.881 --     2 N    1.396     4 N    1.304    18 H    0.952
     4   7 N    3.603 --     3 C    1.304     5 C    1.169    25 H    0.916
     5   6 C    3.956 --    13 N    1.323     6 C    1.299     4 N    1.169
     6   6 C    3.915 --     5 C    1.299     2 N    1.159     7 C    1.119
     7   6 C    3.947 --     8 O    1.677     6 C    1.119     9 N    1.047
     8   8 O    2.039 --     7 C    1.677     9 N    0.141
     9   7 N    3.573 --    11 C    1.214     7 C    1.047    10 C    0.973
                             8 O    0.141
    10   6 C    3.924 --     9 N    0.973    20 H    0.969    21 H    0.968
                            19 H    0.958
    11   6 C    3.925 --    13 N    1.316    12 O    1.239     9 N    1.214
    12   8 O    2.328 --    11 C    1.239    14 C    0.857
    13   7 N    2.990 --     5 C    1.323    11 C    1.316
    14   6 C    3.833 --    23 H    0.975    24 H    0.974    22 H    0.971
                            12 O    0.857
    15   1 H    0.987 --     1 C    0.964
    16   1 H    0.987 --     1 C    0.958
    17   1 H    0.982 --     1 C    0.963
    18   1 H    0.984 --     3 C    0.952
    19   1 H    0.984 --    10 C    0.958
    20   1 H    0.991 --    10 C    0.969
    21   1 H    0.991 --    10 C    0.968
    22   1 H    0.981 --    14 C    0.971
    23   1 H    0.986 --    14 C    0.975
    24   1 H    0.987 --    14 C    0.974
    25   1 H    0.943 --     4 N    0.916
 ---------------------------------------------------------------------------

molecular dipole:
                 x           y           z       tot (Debye)
 q only:        1.511      -0.960       0.146
   full:        1.737      -0.952       0.165       5.052

           -------------------------------------------------
          | TOTAL ENERGY              -42.201337548111 Eh   |
          | GRADIENT NORM               0.003515074495 Eh/α |
          | HOMO-LUMO GAP               3.204138308121 eV   |
           -------------------------------------------------

 * finished run on 2024/06/05 at 19:59:22.056
