   * xtb version 6.6.1 (8d0f1dd) compiled by 'conda@1efc2f54142f' on 2023-08-01
          program call               : xtb xtbopt.xyz --opt crude --input .xc2 --gfn2

   ID    Z sym.   atoms
    1    6 C      1, 3, 5-7, 10, 11, 14
    2    7 N      2, 4, 9, 13
    3    8 O      8, 12
    4    1 H      15-25
########################################################################
[WARNING] Please study the warnings concerning your input carefully
-1- readin_getIntValue: could not parse ''
########################################################################

          :  Hamiltonian                  GFN2-xTB          :
 * total energy  :   -42.2021572 Eh     change        0.1350031E-12 Eh
 * total energy  :   -42.2156998 Eh     change       -0.1354264E-01 Eh
 * total energy  :   -42.2221272 Eh     change       -0.6427338E-02 Eh
 * total energy  :   -42.2226511 Eh     change       -0.5239045E-03 Eh
 * total energy  :   -42.2227891 Eh     change       -0.1380300E-03 Eh
   *** GEOMETRY OPTIMIZATION CONVERGED AFTER 5 ITERATIONS ***

 final structure:
================
25
 xtb: 6.6.1 (8d0f1dd)
C            3.13104873299979        1.94008972676250       -0.02201632135747
N            2.64745799164499        0.59110217052717        0.11173187199364
C            3.37077014929703       -0.50683373305567        0.29721370109540
N            2.57159756925552       -1.58783183272664        0.36282926816631
C            1.28148739785808       -1.16822573316937        0.21361714972380
C            1.33011830586086        0.21201214480223        0.05319768406468
C            0.11585152395745        0.96182018068134       -0.10234675066558
O            0.02300920614839        2.16000090477294       -0.22793374778685
N           -1.03333798967521        0.11945353877271       -0.08533263653122
C           -2.28915832127140        0.85837652642993       -0.19104048692247
C           -0.96530189110794       -1.24524520401709        0.05494095321634
O           -1.96863869675220       -2.07856334276448        0.07126596308365
N            0.17509111212466       -1.89352762068540        0.20890572917307
C           -3.36111573918359       -1.88847083437692       -0.15240765201385
H            3.77836416806115        2.19622483174549        0.81603722955432
H            3.69479993851116        2.05030513386135       -0.94915494893420
H            2.27556829061525        2.61425836277935       -0.04416900482305
H            4.43996178586134       -0.52895343966535        0.38392038622676
H           -2.02471787911256        1.90659130323720       -0.33814435285176
H           -2.87331874004286        0.53030201801927       -1.04544629012986
H           -2.86168182560322        0.78132109372580        0.73090260493071
H           -3.78803168585265       -2.87440628920328        0.03552422728382
H           -3.56470933973701       -1.61165950736489       -1.18809492461318
H           -3.81045629357301       -1.17510692316511        0.53624396970615
H            2.86577374381291       -2.54479493437001        0.50092799632040

          :  Hamiltonian                  GFN2-xTB          :
         :: total energy             -42.222789099641 Eh    ::
         :: gradient norm              0.003068745958 Eh/a0 ::
         :: HOMO-LUMO gap              3.242541103616 eV    ::
         :: SCC energy               -42.741245297234 Eh    ::
         :: -> dispersion             -0.022164157928 Eh    ::
         :: repulsion energy           0.518437054139 Eh    ::

    * Orbital Energies and Occupations

         #    Occupation            Energy/Eh            Energy/eV
      -------------------------------------------------------------
         1        2.0000           -0.8976778             -24.4271
       ...           ...                  ...                  ...
        25        2.0000           -0.6659252             -18.1207
        26        2.0000           -0.6537479             -17.7894
        27        2.0000           -0.6515597             -17.7298
        28        1.9999           -0.6451950             -17.5567
        29        1.9998           -0.6297314             -17.1359
        30        1.9997           -0.6215652             -16.9137
        31        1.9995           -0.6118192             -16.6484
        32        1.9994           -0.6084144             -16.5558
        33        1.9983           -0.5918642             -16.1054
        34        1.9926           -0.5686179             -15.4729
        35        1.9900           -0.5638585             -15.3434
        36        1.9763           -0.5500954             -14.9689
        37        1.9665           -0.5445217             -14.8172 (HOMO)
        38        0.0613           -0.4253605             -11.5746 (LUMO)
        39        0.0151           -0.4027598             -10.9597
        40        0.0017           -0.3684847             -10.0270
        41        0.0000           -0.2741025              -7.4587
        42                         -0.1924323              -5.2364
        43                         -0.1797393              -4.8910
        44                         -0.1522688              -4.1434
        45                         -0.1191226              -3.2415
        46                         -0.0771669              -2.0998
        47                         -0.0500632              -1.3623
        48                         -0.0255826              -0.6961
       ...                                ...                  ...
        67                          0.5373597              14.6223
      -------------------------------------------------------------
                  HL-Gap            0.1191612 Eh            3.2425 eV

     #   Z          covCN         q      C6AA      α(0)
     1   6 C        3.691    -0.092    22.453     6.781
     2   7 N        2.829     0.081    19.830     6.614
     3   6 C        3.072     0.059    26.604     8.457
     4   7 N        2.796    -0.050    22.197     6.997
     5   6 C        3.102     0.145    24.740     8.150
     6   6 C        3.130    -0.028    28.484     8.738
     7   6 C        2.774     0.272    22.401     7.752
     8   8 O        0.858    -0.377    21.231     6.178
     9   7 N        2.740    -0.091    23.008     7.124
    10   6 C        3.700    -0.065    21.923     6.696
    11   6 C        2.778     0.306    21.814     7.650
    12   8 O        1.717    -0.179    16.996     5.566
    13   7 N        1.845    -0.262    27.661     7.795
    14   6 C        3.627     0.005    20.922     6.589
    15   1 H        0.925     0.104     1.750     2.069
    16   1 H        0.924     0.106     1.730     2.057
    17   1 H        0.925     0.132     1.518     1.926
    18   1 H        0.926     0.124     1.578     1.964
    19   1 H        0.924     0.122     1.593     1.974
    20   1 H        0.925     0.083     1.946     2.182
    21   1 H        0.925     0.080     1.977     2.199
    22   1 H        0.924     0.115     1.657     2.013
    23   1 H        0.924     0.084     1.936     2.176
    24   1 H        0.925     0.085     1.928     2.172
    25   1 H        0.860     0.239     0.927     1.508

Wiberg/Mayer (AO) data.
largest (>0.10) Wiberg bond orders for each atom

     #   Z sym  total        # sym  WBO       # sym  WBO       # sym  WBO
 ---------------------------------------------------------------------------
     1   6 C    3.919 --     2 N    0.984    15 H    0.963    17 H    0.963
                            16 H    0.958
     2   7 N    3.694 --     3 C    1.396     6 C    1.162     1 C    0.984
     3   6 C    3.882 --     2 N    1.396     4 N    1.305    18 H    0.952
     4   7 N    3.608 --     3 C    1.305     5 C    1.178    25 H    0.915
     5   6 C    3.955 --     6 C    1.311    13 N    1.294     4 N    1.178
     6   6 C    3.916 --     5 C    1.311     2 N    1.162     7 C    1.111
     7   6 C    3.947 --     8 O    1.685     6 C    1.111     9 N    1.050
     8   8 O    2.045 --     7 C    1.685     9 N    0.144
     9   7 N    3.566 --    11 C    1.198     7 C    1.050    10 C    0.971
                             8 O    0.144
    10   6 C    3.923 --     9 N    0.971    20 H    0.970    21 H    0.969
                            19 H    0.958
    11   6 C    3.935 --    13 N    1.365    12 O    1.220     9 N    1.198
    12   8 O    2.387 --    11 C    1.220    14 C    0.931
    13   7 N    3.008 --    11 C    1.365     5 C    1.294
    14   6 C    3.884 --    24 H    0.969    22 H    0.969    23 H    0.969
                            12 O    0.931
    15   1 H    0.987 --     1 C    0.963
    16   1 H    0.986 --     1 C    0.958
    17   1 H    0.982 --     1 C    0.963
    18   1 H    0.984 --     3 C    0.952
    19   1 H    0.984 --    10 C    0.958
    20   1 H    0.991 --    10 C    0.970
    21   1 H    0.991 --    10 C    0.969
    22   1 H    0.985 --    14 C    0.969
    23   1 H    0.989 --    14 C    0.969
    24   1 H    0.990 --    14 C    0.969
    25   1 H    0.942 --     4 N    0.915
 ---------------------------------------------------------------------------

molecular dipole:
                 x           y           z       tot (Debye)
 q only:        1.804      -0.958       0.175
   full:        1.982      -0.950       0.187       5.607

           -------------------------------------------------
          | TOTAL ENERGY              -42.222789099641 Eh   |
          | GRADIENT NORM               0.003068745958 Eh/α |
          | HOMO-LUMO GAP               3.242541103616 eV   |
           -------------------------------------------------

 * finished run on 2024/06/05 at 19:59:22.312
