   * xtb version 6.6.1 (8d0f1dd) compiled by 'conda@1efc2f54142f' on 2023-08-01
          program call               : xtb struc.xyz --opt loose --input .xc1 --gfn2

   ID    Z sym.   atoms
    1    7 N      1, 17
    2    6 C      2-6, 8, 9, 11-16, 18-23, 25, 26, 28-33
    3    8 O      7, 10, 24, 27
    4    1 H      34-72
constraining bond 3 71 to    5.1400000 Å, actual value:    3.5021073 Å

          :  Hamiltonian                  GFN2-xTB          :
 * total energy  :   -98.9251276 Eh     change       -0.4035485E-08 Eh
 * total energy  :   -99.1079179 Eh     change       -0.1827903E+00 Eh
 * total energy  :   -99.1909894 Eh     change       -0.8307154E-01 Eh
 * total energy  :   -99.2249210 Eh     change       -0.3393155E-01 Eh
 * total energy  :   -99.2380503 Eh     change       -0.1312934E-01 Eh
 * total energy  :   -99.2440602 Eh     change       -0.6009861E-02 Eh
 * total energy  :   -99.2481859 Eh     change       -0.4125716E-02 Eh
 * total energy  :   -99.2512635 Eh     change       -0.3077615E-02 Eh
 * total energy  :   -99.2539997 Eh     change       -0.2736195E-02 Eh
 * total energy  :   -99.2577790 Eh     change       -0.3779282E-02 Eh
 * total energy  :   -99.3799855 Eh     change       -0.1200551E-03 Eh
 * total energy  :   -99.3801203 Eh     change       -0.1348055E-03 Eh
 * total energy  :   -99.3802478 Eh     change       -0.1274838E-03 Eh
 * total energy  :   -99.3803756 Eh     change       -0.1278176E-03 Eh
 * total energy  :   -99.3804705 Eh     change       -0.9490336E-04 Eh
 * total energy  :   -99.3805534 Eh     change       -0.8291303E-04 Eh
 * total energy  :   -99.3806247 Eh     change       -0.7130703E-04 Eh
 * total energy  :   -99.3806898 Eh     change       -0.6505512E-04 Eh
 * total energy  :   -99.3807313 Eh     change       -0.4155862E-04 Eh
   *** GEOMETRY OPTIMIZATION CONVERGED AFTER 67 ITERATIONS ***

 final structure:
================
72
 xtb: 6.6.1 (8d0f1dd)
N           -2.21663129692813        2.47495339454694        2.03255206587431
C           -1.97596550266375        2.59407477680758        0.69214016715840
C           -2.35291283994294        1.72803620417568       -0.27350816186675
C           -3.08512122013265        0.49320087708769        0.01739388177224
C           -4.15317231687519        0.08296232204357       -0.79020282061625
C           -4.86866701776308       -1.06781169872647       -0.51459396775940
O           -5.92481111344935       -1.51869821004855       -1.22796412215010
C           -6.40936873372373       -0.74667818460936       -2.29969974508385
C           -4.50260774347242       -1.87230154156337        0.59789921370895
O           -5.25615498260075       -2.97473971352675        0.79303303835020
C           -4.98956955048678       -3.79510701745962        1.90603388718133
C           -3.42724873580317       -1.47838575690334        1.38071174766437
C           -2.73047146645623       -0.31384744902157        1.09745575385251
C           -2.02287624812433        2.02833632467943       -1.70961733553901
C           -1.10682527186826        0.94294114173743       -2.32573463482425
C            0.21848650396466        0.94304524822348       -1.67850645814623
N            0.75515714330785       -0.05774058740969       -0.99823522552772
C            2.10753275823448        0.04555041501102       -0.50451809632677
C            3.12104627354863       -0.59101211294156       -1.47690831318699
C            4.52164849916328       -0.34685389265529       -0.98949792581793
C            5.16205549971441        0.84898716105207       -1.26959168686414
C            6.43971192889235        1.09928318760633       -0.79349763695351
C            7.10294568154550        0.15560411555580       -0.02333517263389
O            8.33946104071809        0.29201743889820        0.49446496025336
C            9.05602042701223        1.48072518031993        0.25325146222378
C            6.45662277786468       -1.07719573776850        0.26453721876351
O            7.17706525009170       -1.94106884205011        1.00955299962358
C            6.63712627027685       -3.20496607195857        1.31210387203800
C            5.17733565399509       -1.30306404822013       -0.21794226939195
C            0.10582160428234       -1.34123758708371       -0.88135567558356
C           -5.45226681054174        2.87737487955387        1.17480520187688
C           -5.48638970848955        1.94178592231525        2.10850231952502
C           -5.28831064740824        4.33424197724019        1.44287606627273
H           -4.44878655776321        0.69946773486135       -1.62237491924482
H           -6.72586543281029        0.24740121899390       -1.96817670801587
H           -7.27223072170200       -1.28809480442678       -2.68339159778356
H           -5.66391462493991       -0.64725876922146       -3.09630311441478
H           -5.07454675576195       -3.23878063831992        2.84386223640993
H           -5.74524231788561       -4.57724797052853        1.88108257007308
H           -3.99629227287154       -4.25037028239384        1.84012874411198
H           -3.12247116622601       -2.07653285126270        2.22433351826816
H           -1.88413197569863       -0.04620874340497        1.71152543969469
H           -2.93377048450085        2.07307132216964       -2.30806497415953
H           -1.53258142387616        2.99945281898554       -1.78168629140813
H           -1.59948074406370       -0.02452755503412       -2.25317461960461
H           -0.97623099735711        1.18700343735834       -3.38514550274259
H           -1.41153698632529        3.47569823426611        0.41736633825355
H            0.78812144453601        1.85861518535406       -1.71613044354482
H            2.17324850721122       -0.44869168230352        0.46756646124053
H            2.36198204200262        1.09839161068694       -0.36943711525324
H            2.98712436549230       -0.13943459116473       -2.46179693746163
H            2.93042826346780       -1.66153416012453       -1.55874238798236
H            4.67108599515950        1.59566748101149       -1.87523180166849
H            6.91421610663012        2.03649433600602       -1.03373426695445
H            8.53486577559990        2.35248776543831        0.66076868336363
H            9.23758116293832        1.62964208459498       -0.81539826342202
H           10.00747063344865        1.35703986811432        0.76677416124709
H            7.40135280269193       -3.71705010584437        1.89344774467111
H            5.72476348944007       -3.11968293622828        1.91121778658509
H            6.42747647296148       -3.77952551245273        0.40449301172888
H            4.67953869147152       -2.23676030770276       -0.00772047148295
H            0.03172536476870       -1.83709153356755       -1.85176874309812
H           -0.89777167046564       -1.22343385117797       -0.46780160201248
H            0.68232562208833       -1.97509034335106       -0.21253738295164
H           -5.54502031465733        2.60755084328828        0.13109274253019
H           -2.96773042366301        1.84802125350648        2.28957392025862
H           -5.61743332423513        0.89871576184318        1.87151715662152
H           -5.41230655859286        2.19409374913654        3.15594984270028
H           -5.14833035572551        4.52681948807971        2.50391834846624
H           -4.43584476933196        4.72835470577358        0.88961995441305
H           -6.17234533280775        4.87678147734901        1.10786899899734
H           -2.19159203759721        3.32827366936733        2.56516971841316

          :  Hamiltonian                  GFN2-xTB          :
         :: total energy             -99.380731345793 Eh    ::
         :: gradient norm              0.002693035671 Eh/a0 ::
         :: HOMO-LUMO gap              1.522317795058 eV    ::
         :: SCC energy              -100.808293216160 Eh    ::
         :: -> dispersion             -0.072435937578 Eh    ::
         :: repulsion energy           1.426206372034 Eh    ::

    * Orbital Energies and Occupations

         #    Occupation            Energy/Eh            Energy/eV
      -------------------------------------------------------------
         1        2.0000           -0.8023017             -21.8317
       ...           ...                  ...                  ...
        78        1.9990           -0.5276039             -14.3568
        79        1.9989           -0.5259121             -14.3108
        80        1.9986           -0.5218525             -14.2003
        81        1.9985           -0.5211351             -14.1808
        82        1.9978           -0.5152224             -14.0199
        83        1.9976           -0.5132824             -13.9671
        84        1.9974           -0.5122897             -13.9401
        85        1.9885           -0.4885601             -13.2944
        86        1.9819           -0.4814068             -13.0997
        87        1.9816           -0.4810695             -13.0906
        88        1.9453           -0.4635786             -12.6146
        89        1.8678           -0.4489556             -12.2167
        90        1.8052           -0.4422774             -12.0350 (HOMO)
        91        0.4262           -0.3863333             -10.5127 (LUMO)
        92        0.0098           -0.3229266              -8.7873
        93        0.0039           -0.3083489              -8.3906
        94        0.0032           -0.3050001              -8.2995
        95        0.0028           -0.3028772              -8.2417
        96        0.0008           -0.2832612              -7.7079
        97        0.0003           -0.2677232              -7.2851
        98        0.0000           -0.1800496              -4.8994
        99        0.0000           -0.1780870              -4.8460
       100                         -0.1239841              -3.3738
       101                         -0.0588240              -1.6007
       ...                                ...                  ...
       171                          0.5865466              15.9607
      -------------------------------------------------------------
                  HL-Gap            0.0559441 Eh            1.5223 eV

     #   Z          covCN         q      C6AA      α(0)
     1   7 N        2.634    -0.249    26.484     7.643
     2   6 C        2.828     0.023    27.490     8.592
     3   6 C        2.952    -0.038    28.941     8.824
     4   6 C        2.971    -0.000    28.028     8.684
     5   6 C        2.921    -0.080    29.992     8.981
     6   6 C        2.861     0.129    25.177     8.224
     7   8 O        1.706    -0.236    17.904     5.713
     8   6 C        3.644     0.031    20.397     6.492
     9   6 C        2.864     0.128    25.191     8.227
    10   8 O        1.706    -0.232    17.842     5.703
    11   6 C        3.646     0.029    20.424     6.495
    12   6 C        2.913    -0.074    29.857     8.960
    13   6 C        2.922    -0.061    29.518     8.910
    14   6 C        3.811    -0.063    21.708     6.632
    15   6 C        3.803    -0.067    21.783     6.645
    16   6 C        2.848     0.004    27.933     8.662
    17   7 N        2.729     0.023    20.847     6.781
    18   6 C        3.758    -0.021    20.991     6.532
    19   6 C        3.808    -0.070    21.838     6.652
    20   6 C        2.969    -0.001    28.054     8.688
    21   6 C        2.922    -0.050    29.248     8.869
    22   6 C        2.914    -0.068    29.703     8.937
    23   6 C        2.865     0.132    25.111     8.214
    24   8 O        1.706    -0.226    17.746     5.688
    25   6 C        3.645     0.026    20.467     6.502
    26   6 C        2.863     0.132    25.113     8.214
    27   8 O        1.706    -0.228    17.783     5.694
    28   6 C        3.645     0.028    20.438     6.498
    29   6 C        2.920    -0.080    29.993     8.981
    30   6 C        3.700    -0.074    22.078     6.719
    31   6 C        2.884    -0.021    28.519     8.755
    32   6 C        2.837    -0.100    30.504     9.051
    33   6 C        3.756    -0.108    22.623     6.782
    34   1 H        0.926     0.046     2.364     2.405
    35   1 H        0.924     0.049     2.331     2.388
    36   1 H        0.925     0.078     1.996     2.209
    37   1 H        0.924     0.046     2.376     2.410
    38   1 H        0.924     0.051     2.304     2.373
    39   1 H        0.925     0.079     1.988     2.205
    40   1 H        0.924     0.048     2.341     2.393
    41   1 H        0.926     0.048     2.346     2.395
    42   1 H        0.926     0.043     2.406     2.426
    43   1 H        0.924     0.060     2.194     2.317
    44   1 H        0.924     0.047     2.354     2.399
    45   1 H        0.925     0.064     2.152     2.294
    46   1 H        0.924     0.076     2.024     2.225
    47   1 H        0.925     0.040     2.443     2.444
    48   1 H        0.926     0.068     2.103     2.268
    49   1 H        0.924     0.069     2.094     2.263
    50   1 H        0.924     0.070     2.084     2.257
    51   1 H        0.924     0.055     2.262     2.352
    52   1 H        0.924     0.054     2.265     2.354
    53   1 H        0.926     0.043     2.414     2.430
    54   1 H        0.926     0.056     2.244     2.343
    55   1 H        0.924     0.052     2.295     2.369
    56   1 H        0.924     0.054     2.270     2.356
    57   1 H        0.925     0.080     1.975     2.198
    58   1 H        0.925     0.080     1.979     2.200
    59   1 H        0.924     0.047     2.353     2.399
    60   1 H        0.924     0.051     2.306     2.375
    61   1 H        0.926     0.046     2.364     2.405
    62   1 H        0.924     0.077     2.014     2.219
    63   1 H        0.924     0.085     1.933     2.174
    64   1 H        0.925     0.079     1.988     2.205
    65   1 H        0.925     0.031     2.573     2.508
    66   1 H        0.860     0.184     1.193     1.711
    67   1 H        0.926     0.033     2.545     2.495
    68   1 H        0.926     0.041     2.438     2.442
    69   1 H        0.925     0.046     2.367     2.406
    70   1 H        0.925     0.045     2.389     2.417
    71   1 H        0.925     0.060     2.201     2.320
    72   1 H        0.860     0.179     1.219     1.730

Wiberg/Mayer (AO) data.
largest (>0.10) Wiberg bond orders for each atom

     #   Z sym  total        # sym  WBO       # sym  WBO       # sym  WBO
 ---------------------------------------------------------------------------
     1   7 N    3.253 --     2 C    1.214    72 H    0.950    66 H    0.930
                             3 C    0.104
     2   6 C    3.920 --     3 C    1.639     1 N    1.214    47 H    0.961
     3   6 C    3.895 --     2 C    1.639     4 C    1.076    14 C    1.010
                             1 N    0.104
     4   6 C    3.956 --    13 C    1.370     5 C    1.339     3 C    1.076
     5   6 C    3.957 --     6 C    1.414     4 C    1.339    34 H    0.959
     6   6 C    3.910 --     5 C    1.414     9 C    1.222     7 O    1.092
     7   8 O    2.251 --     6 C    1.092     8 C    0.980
     8   6 C    3.935 --     7 O    0.980    36 H    0.977    35 H    0.974
                            37 H    0.974
     9   6 C    3.894 --    12 C    1.384     6 C    1.222    10 O    1.098
    10   8 O    2.248 --     9 C    1.098    11 C    0.979
    11   6 C    3.934 --    10 O    0.979    39 H    0.977    38 H    0.974
                            40 H    0.974
    12   6 C    3.965 --    13 C    1.419     9 C    1.384    41 H    0.964
    13   6 C    3.945 --    12 C    1.419     4 C    1.370    42 H    0.966
    14   6 C    3.964 --     3 C    1.010    44 H    0.974    43 H    0.956
                            15 C    0.952
    15   6 C    3.984 --    16 C    1.065    45 H    0.968    14 C    0.952
                            46 H    0.939
    16   6 C    3.559 --    17 N    1.421    15 C    1.065    48 H    0.959
    17   7 N    3.479 --    16 C    1.421    30 C    0.998    18 C    0.989
    18   6 C    3.955 --    17 N    0.989    50 H    0.967    19 C    0.966
                            49 H    0.964
    19   6 C    3.976 --    20 C    1.008    52 H    0.973    51 H    0.971
                            18 C    0.966
    20   6 C    3.950 --    21 C    1.411    29 C    1.380    19 C    1.008
    21   6 C    3.954 --    22 C    1.416    20 C    1.411    53 H    0.968
    22   6 C    3.963 --    21 C    1.416    23 C    1.386    54 H    0.963
    23   6 C    3.900 --    22 C    1.386    26 C    1.225    24 O    1.105
    24   8 O    2.254 --    23 C    1.105    25 C    0.977
    25   6 C    3.931 --    24 O    0.977    57 H    0.977    55 H    0.973
                            56 H    0.973
    26   6 C    3.904 --    29 C    1.397    23 C    1.225    27 O    1.099
    27   8 O    2.254 --    26 C    1.099    28 C    0.979
    28   6 C    3.934 --    27 O    0.979    58 H    0.977    59 H    0.974
                            60 H    0.974
    29   6 C    3.962 --    26 C    1.397    20 C    1.380    61 H    0.963
    30   6 C    3.957 --    17 N    0.998    64 H    0.978    62 H    0.966
                            63 H    0.960
    31   6 C    3.976 --    32 C    1.951    33 C    1.044    65 H    0.966
    32   6 C    3.971 --    31 C    1.951    67 H    0.976    68 H    0.974
    33   6 C    3.993 --    31 C    1.044    69 H    0.984    70 H    0.969
                            71 H    0.963
    34   1 H    0.997 --     5 C    0.959
    35   1 H    0.995 --     8 C    0.974
    36   1 H    0.993 --     8 C    0.977
    37   1 H    0.995 --     8 C    0.974
    38   1 H    0.994 --    11 C    0.974
    39   1 H    0.993 --    11 C    0.977
    40   1 H    0.994 --    11 C    0.974
    41   1 H    0.996 --    12 C    0.964
    42   1 H    0.998 --    13 C    0.966
    43   1 H    0.991 --    14 C    0.956
    44   1 H    0.997 --    14 C    0.974
    45   1 H    0.996 --    15 C    0.968
    46   1 H    0.975 --    15 C    0.939
    47   1 H    0.997 --     2 C    0.961
    48   1 H    0.995 --    16 C    0.959
    49   1 H    0.991 --    18 C    0.964
    50   1 H    0.994 --    18 C    0.967
    51   1 H    0.996 --    19 C    0.971
    52   1 H    0.996 --    19 C    0.973
    53   1 H    0.998 --    21 C    0.968
    54   1 H    0.995 --    22 C    0.963
    55   1 H    0.993 --    25 C    0.973
    56   1 H    0.993 --    25 C    0.973
    57   1 H    0.993 --    25 C    0.977
    58   1 H    0.993 --    28 C    0.977
    59   1 H    0.994 --    28 C    0.974
    60   1 H    0.994 --    28 C    0.974
    61   1 H    0.997 --    29 C    0.963
    62   1 H    0.984 --    30 C    0.966
    63   1 H    0.986 --    30 C    0.960
    64   1 H    0.993 --    30 C    0.978
    65   1 H    0.998 --    31 C    0.966
    66   1 H    0.965 --     1 N    0.930
    67   1 H    0.998 --    32 C    0.976
    68   1 H    0.998 --    32 C    0.974
    69   1 H    0.997 --    33 C    0.984
    70   1 H    0.996 --    33 C    0.969
    71   1 H    0.994 --    33 C    0.963
    72   1 H    0.966 --     1 N    0.950
 ---------------------------------------------------------------------------

molecular dipole:
                 x           y           z       tot (Debye)
 q only:        0.543       0.591      -0.409
   full:        0.278       0.864      -0.473       2.600

           -------------------------------------------------
          | TOTAL ENERGY              -99.380731345793 Eh   |
          | GRADIENT NORM               0.002693035671 Eh/α |
          | HOMO-LUMO GAP               1.522317795058 eV   |
           -------------------------------------------------

 * finished run on 2024/04/06 at 11:12:12.547
