   * xtb version 6.6.1 (8d0f1dd) compiled by 'conda@1efc2f54142f' on 2023-08-01
          program call               : xtb struc.xyz --opt loose --input .xc1 --gfn2

   ID    Z sym.   atoms
    1    6 C      1, 3, 5-7, 10, 11, 14
    2    7 N      2, 4, 9, 13
    3    8 O      8, 12
    4    1 H      15-25
constraining bond 12 13 to    4.6800000 Å, actual value:    2.2702978 Å

          :  Hamiltonian                  GFN2-xTB          :
 * total energy  :   -21.5118865 Eh     change       -0.6650680E-10 Eh
 * total energy  :   -30.5764583 Eh     change       -0.9064572E+01 Eh
 * total energy  :   -36.4827702 Eh     change       -0.5906312E+01 Eh
 * total energy  :   -40.0094434 Eh     change       -0.3526673E+01 Eh
 * total energy  :   -41.4041944 Eh     change       -0.1394751E+01 Eh
 * total energy  :   -41.6191183 Eh     change       -0.2149239E+00 Eh
 * total energy  :   -41.6558665 Eh     change       -0.3674817E-01 Eh
 * total energy  :   -41.6901434 Eh     change       -0.3427696E-01 Eh
 * total energy  :   -41.7079779 Eh     change       -0.1783443E-01 Eh
 * total energy  :   -41.7420047 Eh     change       -0.3402685E-01 Eh
 * total energy  :   -42.1228790 Eh     change       -0.3720393E-03 Eh
 * total energy  :   -42.1232285 Eh     change       -0.3495324E-03 Eh
 * total energy  :   -42.1234146 Eh     change       -0.1861073E-03 Eh
 * total energy  :   -42.1235520 Eh     change       -0.1374008E-03 Eh
 * total energy  :   -42.1236974 Eh     change       -0.1453858E-03 Eh
 * total energy  :   -42.1238205 Eh     change       -0.1231028E-03 Eh
 * total energy  :   -42.1239290 Eh     change       -0.1084808E-03 Eh
 * total energy  :   -42.1239933 Eh     change       -0.6428591E-04 Eh
 * total energy  :   -42.1240240 Eh     change       -0.3074683E-04 Eh
   *** GEOMETRY OPTIMIZATION CONVERGED AFTER 51 ITERATIONS ***

 final structure:
================
25
 xtb: 6.6.1 (8d0f1dd)
C            2.65929153595178        1.32140930340640       -0.04392045684878
N            2.10643041238275       -0.00825243263245       -0.03110007370569
C            2.84346782143111       -1.08664347399877       -0.19493643272268
N            2.07037783292340       -2.16962352956838       -0.20049522204849
C            0.73814720699127       -1.80496780421762       -0.04422865505863
C            0.75051569392822       -0.36148030842391        0.04475996367571
C           -0.13325293652904        0.70248507465428        0.46822823537262
O            0.29566360448643        1.61815023366875        1.13729017782421
N           -1.50528270423584        0.90911031741091       -0.01890536527329
C           -1.86081608753245        2.35117210072871       -0.11377774023200
C           -2.55830995429647        0.15764951864394       -0.12157236095033
O           -3.71607543337185        0.22391292483917       -0.30214209221414
N           -0.12363448849531       -2.75108311411744        0.02214836401986
C           -1.51019320005675       -2.57261485957372        0.12810554194958
H            2.56492444124355        1.78683978979741        0.93773547935741
H            3.71007020846321        1.26462010797939       -0.31961942206564
H            2.13268245534625        1.94368005100057       -0.76706601113691
H            3.90983225442836       -1.08929848616537       -0.32021051357470
H           -0.94448649552796        2.93496919711877       -0.13321447324645
H           -2.43115688497991        2.50959592926158       -1.02683639097435
H           -2.45405860137072        2.65644250335623        0.74718749074306
H           -1.86270565068099       -2.94797169181144        1.09404398651396
H           -2.00500728611607       -3.14898427365183       -0.65818690198536
H           -1.87158424434253       -1.48689649029058        0.03258991879429
H            2.35559201405970       -3.13398204581473       -0.28470542831321

          :  Hamiltonian                  GFN2-xTB          :
         :: total energy             -42.124024001171 Eh    ::
         :: gradient norm              0.002773961988 Eh/a0 ::
         :: HOMO-LUMO gap              1.438276948496 eV    ::
         :: SCC energy               -42.650775619971 Eh    ::
         :: -> dispersion             -0.021876827823 Eh    ::
         :: repulsion energy           0.526507691998 Eh    ::

    * Orbital Energies and Occupations

         #    Occupation            Energy/Eh            Energy/eV
      -------------------------------------------------------------
         1        2.0000           -0.9117935             -24.8112
       ...           ...                  ...                  ...
        25        2.0000           -0.6721178             -18.2893
        26        2.0000           -0.6626830             -18.0325
        27        2.0000           -0.6555787             -17.8392
        28        1.9999           -0.6515865             -17.7306
        29        1.9998           -0.6355674             -17.2947
        30        1.9997           -0.6276118             -17.0782
        31        1.9997           -0.6270549             -17.0630
        32        1.9990           -0.6064034             -16.5011
        33        1.9979           -0.5951855             -16.1958
        34        1.9973           -0.5911772             -16.0868
        35        1.9943           -0.5791988             -15.7608
        36        1.9371           -0.5406450             -14.7117
        37        1.6830           -0.5128176             -13.9545 (HOMO)
        38        0.3172           -0.4599619             -12.5162 (LUMO)
        39        0.0674           -0.4332561             -11.7895
        40        0.0063           -0.3952439             -10.7551
        41        0.0012           -0.3691574             -10.0453
        42        0.0001           -0.3199388              -8.7060
        43                         -0.2176459              -5.9224
        44                         -0.1758854              -4.7861
        45                         -0.1237695              -3.3679
        46                         -0.1002743              -2.7286
        47                         -0.0647557              -1.7621
        48                         -0.0521391              -1.4188
       ...                                ...                  ...
        67                          0.6572507              17.8847
      -------------------------------------------------------------
                  HL-Gap            0.0528557 Eh            1.4383 eV

     #   Z          covCN         q      C6AA      α(0)
     1   6 C        3.696    -0.085    22.297     6.755
     2   7 N        2.834     0.071    20.009     6.644
     3   6 C        2.980     0.073    26.372     8.424
     4   7 N        2.799    -0.067    22.530     7.050
     5   6 C        2.970     0.142    24.900     8.185
     6   6 C        3.028    -0.045    29.095     8.848
     7   6 C        2.756     0.265    22.537     7.774
     8   8 O        0.861    -0.351    20.726     6.104
     9   7 N        2.725    -0.050    22.217     7.001
    10   6 C        3.740    -0.060    21.729     6.651
    11   6 C        1.825     0.278    24.814     8.048
    12   8 O        0.856    -0.171    17.607     5.626
    13   7 N        1.835    -0.211    26.421     7.617
    14   6 C        3.691    -0.021    21.133     6.579
    15   1 H        0.924     0.127     1.556     1.951
    16   1 H        0.925     0.094     1.837     2.120
    17   1 H        0.925     0.099     1.797     2.096
    18   1 H        0.926     0.117     1.635     1.999
    19   1 H        0.925     0.119     1.622     1.992
    20   1 H        0.925     0.095     1.828     2.114
    21   1 H        0.925     0.102     1.770     2.080
    22   1 H        0.924     0.098     1.800     2.098
    23   1 H        0.924     0.101     1.774     2.083
    24   1 H        0.916     0.046     2.378     2.412
    25   1 H        0.860     0.234     0.948     1.525

Wiberg/Mayer (AO) data.
largest (>0.10) Wiberg bond orders for each atom

     #   Z sym  total        # sym  WBO       # sym  WBO       # sym  WBO
 ---------------------------------------------------------------------------
     1   6 C    3.928 --     2 N    0.989    16 H    0.973    17 H    0.964
                            15 H    0.952
     2   7 N    3.682 --     3 C    1.411     6 C    1.117     1 C    0.989
                             4 N    0.103
     3   6 C    3.887 --     2 N    1.411     4 N    1.327    18 H    0.950
     4   7 N    3.563 --     3 C    1.327     5 C    1.098    25 H    0.917
                             2 N    0.103
     5   6 C    3.946 --    13 N    1.539     6 C    1.163     4 N    1.098
     6   6 C    3.744 --     5 C    1.163     7 C    1.137     2 N    1.117
     7   6 C    3.891 --     8 O    1.711     6 C    1.137     9 N    0.927
     8   8 O    2.026 --     7 C    1.711
     9   7 N    3.539 --    11 C    1.392     7 C    0.927    10 C    0.903
                            12 O    0.179
    10   6 C    3.873 --    20 H    0.974    21 H    0.973    19 H    0.961
                             9 N    0.903
    11   6 C    3.654 --    12 O    1.963     9 N    1.392    24 H    0.148
    12   8 O    2.303 --    11 C    1.963     9 N    0.179
    13   7 N    2.938 --     5 C    1.539    14 C    1.100
    14   6 C    3.897 --    13 N    1.100    23 H    0.943    22 H    0.940
                            24 H    0.804
    15   1 H    0.981 --     1 C    0.952
    16   1 H    0.990 --     1 C    0.973
    17   1 H    0.988 --     1 C    0.964
    18   1 H    0.985 --     3 C    0.950
    19   1 H    0.980 --    10 C    0.961
    20   1 H    0.990 --    10 C    0.974
    21   1 H    0.988 --    10 C    0.973
    22   1 H    0.968 --    14 C    0.940
    23   1 H    0.968 --    14 C    0.943
    24   1 H    0.987 --    14 C    0.804    11 C    0.148
    25   1 H    0.944 --     4 N    0.917
 ---------------------------------------------------------------------------

molecular dipole:
                 x           y           z       tot (Debye)
 q only:        1.749      -0.675      -0.663
   full:        1.808      -0.759      -0.698       5.292

           -------------------------------------------------
          | TOTAL ENERGY              -42.124024001171 Eh   |
          | GRADIENT NORM               0.002773961988 Eh/α |
          | HOMO-LUMO GAP               1.438276948496 eV   |
           -------------------------------------------------

 * finished run on 2024/06/05 at 19:59:20.256
