   * xtb version 6.6.1 (8d0f1dd) compiled by 'conda@1efc2f54142f' on 2023-08-01
          program call               : xtb xtbopt.xyz --opt crude --input .xc2 --gfn2

   ID    Z sym.   atoms
    1    6 C      1, 3, 5-7, 10, 11, 14
    2    7 N      2, 4, 9, 13
    3    8 O      8, 12
    4    1 H      15-25
########################################################################
[WARNING] Please study the warnings concerning your input carefully
-1- readin_getIntValue: could not parse ''
########################################################################

          :  Hamiltonian                  GFN2-xTB          :
 * total energy  :   -42.1240926 Eh     change       -0.4192202E-12 Eh
 * total energy  :   -42.1292681 Eh     change       -0.5175542E-02 Eh
 * total energy  :   -42.1322897 Eh     change       -0.3021628E-02 Eh
 * total energy  :   -42.1335440 Eh     change       -0.1254281E-02 Eh
 * total energy  :   -42.1349639 Eh     change       -0.1419883E-02 Eh
 * total energy  :   -42.1358998 Eh     change       -0.9359154E-03 Eh
 * total energy  :   -42.1371512 Eh     change       -0.1251382E-02 Eh
 * total energy  :   -42.1379990 Eh     change       -0.8478364E-03 Eh
 * total energy  :   -42.1388736 Eh     change       -0.8745180E-03 Eh
 * total energy  :   -42.1396779 Eh     change       -0.8043337E-03 Eh
 * total energy  :   -42.1521758 Eh     change       -0.1792129E-02 Eh
 * total energy  :   -42.1533038 Eh     change       -0.1128007E-02 Eh
 * total energy  :   -42.1542854 Eh     change       -0.9816696E-03 Eh
 * total energy  :   -42.1553179 Eh     change       -0.1032501E-02 Eh
 * total energy  :   -42.1563336 Eh     change       -0.1015701E-02 Eh
 * total energy  :   -42.1572665 Eh     change       -0.9328946E-03 Eh
 * total energy  :   -42.1580699 Eh     change       -0.8033261E-03 Eh
 * total energy  :   -42.1586012 Eh     change       -0.5313829E-03 Eh
 * total energy  :   -42.1589970 Eh     change       -0.3957242E-03 Eh
   *** GEOMETRY OPTIMIZATION CONVERGED AFTER 33 ITERATIONS ***

 final structure:
================
25
 xtb: 6.6.1 (8d0f1dd)
C            2.73924547225810        1.23911593412455       -0.12398903302913
N            2.12619018830875       -0.06136791833902       -0.12339291525360
C            2.74837656630842       -1.21450225048555       -0.29926232863372
N            1.85238972358883       -2.20916575776672       -0.24117661100245
C            0.60736744439345       -1.68283510324626        0.00630457035806
C            0.77861999786277       -0.29750296816382        0.04698951229009
C           -0.12585103030972        0.81225903576624        0.46068706499125
O            0.23788828852648        1.58183413282994        1.31835655632310
N           -1.36057514029697        0.92397728285761       -0.14266625964968
C           -2.22696578749559        1.98366054679618        0.36202419677898
C           -1.79548028299070        0.17561092443602       -1.22410935770081
O           -2.88674697273417        0.26649976216405       -1.70421706125796
N           -0.48632265721840       -2.46638587920168       -0.01972318816110
C           -1.45816865095015       -2.51391146915818        0.78270723635019
H            2.60154414649907        1.71474773017575        0.84941594729075
H            3.80179566768212        1.14171353108171       -0.33872589392706
H            2.27496520329375        1.87490469955639       -0.87997675572175
H            3.80129697920991       -1.33947779790561       -0.46269995800091
H           -1.67831829356306        2.92646662831964        0.36426658968611
H           -3.09646358421320        2.05040597561883       -0.28990017891750
H           -2.54196077407309        1.76094100568741        1.38089499068758
H           -1.49558273844060       -1.97943080064759        1.73038507223936
H           -2.27994855683983       -3.16503436641586        0.52438824417228
H           -1.02417620505686       -0.50761132658577       -1.61235281785811
H            2.04731251035066       -3.19667300989780       -0.33305600415335

          :  Hamiltonian                  GFN2-xTB          :
         :: total energy             -42.158996958380 Eh    ::
         :: gradient norm              0.009010134016 Eh/a0 ::
         :: HOMO-LUMO gap              2.819648434649 eV    ::
         :: SCC energy               -42.700060869685 Eh    ::
         :: -> dispersion             -0.022744438980 Eh    ::
         :: repulsion energy           0.540818650815 Eh    ::

    * Orbital Energies and Occupations

         #    Occupation            Energy/Eh            Energy/eV
      -------------------------------------------------------------
         1        2.0000           -0.9133768             -24.8542
       ...           ...                  ...                  ...
        25        2.0000           -0.6698285             -18.2270
        26        2.0000           -0.6640556             -18.0699
        27        1.9999           -0.6587597             -17.9258
        28        1.9999           -0.6485415             -17.6477
        29        1.9998           -0.6447998             -17.5459
        30        1.9996           -0.6315118             -17.1843
        31        1.9992           -0.6196825             -16.8624
        32        1.9984           -0.6076197             -16.5342
        33        1.9973           -0.5997545             -16.3202
        34        1.9874           -0.5751028             -15.6493
        35        1.9761           -0.5648606             -15.3706
        36        1.9605           -0.5567777             -15.1507
        37        1.9425           -0.5506816             -14.9848 (HOMO)
        38        0.0927           -0.4470614             -12.1652 (LUMO)
        39        0.0381           -0.4325203             -11.7695
        40        0.0077           -0.4068751             -11.0716
        41        0.0007           -0.3692029             -10.0465
        42        0.0001           -0.3323494              -9.0437
        43                         -0.1865088              -5.0752
        44                         -0.1769647              -4.8155
        45                         -0.1320952              -3.5945
        46                         -0.0751774              -2.0457
        47                         -0.0537131              -1.4616
        48                         -0.0421833              -1.1479
       ...                                ...                  ...
        67                          0.5113195              13.9137
      -------------------------------------------------------------
                  HL-Gap            0.1036202 Eh            2.8196 eV

     #   Z          covCN         q      C6AA      α(0)
     1   6 C        3.693    -0.089    22.389     6.770
     2   7 N        2.848     0.085    19.761     6.602
     3   6 C        3.022     0.059    26.651     8.468
     4   7 N        2.812    -0.047    22.155     6.991
     5   6 C        3.014     0.126    25.229     8.239
     6   6 C        3.086    -0.025    28.524     8.755
     7   6 C        2.767     0.270    22.438     7.758
     8   8 O        0.860    -0.350    20.706     6.101
     9   7 N        2.732    -0.069    22.585     7.058
    10   6 C        3.705    -0.062    21.847     6.682
    11   6 C        2.705     0.245    22.892     7.831
    12   8 O        0.857    -0.291    19.616     5.938
    13   7 N        1.826    -0.136    24.721     7.368
    14   6 C        2.789     0.040    27.087     8.525
    15   1 H        0.924     0.132     1.518     1.927
    16   1 H        0.925     0.102     1.763     2.076
    17   1 H        0.924     0.107     1.725     2.054
    18   1 H        0.926     0.127     1.556     1.950
    19   1 H        0.924     0.099     1.796     2.096
    20   1 H        0.925     0.111     1.691     2.034
    21   1 H        0.925     0.092     1.860     2.133
    22   1 H        0.925     0.078     2.001     2.212
    23   1 H        0.926     0.124     1.582     1.967
    24   1 H        0.923     0.035     2.515     2.480
    25   1 H        0.860     0.237     0.935     1.514

Wiberg/Mayer (AO) data.
largest (>0.10) Wiberg bond orders for each atom

     #   Z sym  total        # sym  WBO       # sym  WBO       # sym  WBO
 ---------------------------------------------------------------------------
     1   6 C    3.921 --     2 N    0.988    16 H    0.974    17 H    0.961
                            15 H    0.950
     2   7 N    3.710 --     3 C    1.396     6 C    1.175     1 C    0.988
     3   6 C    3.904 --     2 N    1.396     4 N    1.316    18 H    0.950
     4   7 N    3.610 --     3 C    1.316     5 C    1.170    25 H    0.916
     5   6 C    3.934 --     6 C    1.371    13 N    1.209     4 N    1.170
     6   6 C    3.889 --     5 C    1.371     2 N    1.175     7 C    0.988
     7   6 C    3.945 --     8 O    1.715     9 N    1.148     6 C    0.988
     8   8 O    2.054 --     7 C    1.715     9 N    0.144
     9   7 N    3.571 --     7 C    1.148    11 C    1.132    10 C    0.968
                             8 O    0.144    12 O    0.139
    10   6 C    3.915 --    20 H    0.969     9 N    0.968    21 H    0.965
                            19 H    0.964
    11   6 C    3.936 --    12 O    1.834     9 N    1.132    24 H    0.914
    12   8 O    2.095 --    11 C    1.834     9 N    0.139
    13   7 N    3.213 --    14 C    1.831     5 C    1.209
    14   6 C    3.838 --    13 N    1.831    23 H    0.954    22 H    0.947
    15   1 H    0.981 --     1 C    0.950
    16   1 H    0.989 --     1 C    0.974
    17   1 H    0.987 --     1 C    0.961
    18   1 H    0.982 --     3 C    0.950
    19   1 H    0.984 --    10 C    0.964
    20   1 H    0.986 --    10 C    0.969
    21   1 H    0.985 --    10 C    0.965
    22   1 H    0.984 --    14 C    0.947
    23   1 H    0.980 --    14 C    0.954
    24   1 H    0.987 --    11 C    0.914
    25   1 H    0.943 --     4 N    0.916
 ---------------------------------------------------------------------------

molecular dipole:
                 x           y           z       tot (Debye)
 q only:        2.570      -1.660      -0.012
   full:        2.879      -1.938       0.091       8.824

           -------------------------------------------------
          | TOTAL ENERGY              -42.158996958380 Eh   |
          | GRADIENT NORM               0.009010134016 Eh/α |
          | HOMO-LUMO GAP               2.819648434649 eV   |
           -------------------------------------------------

 * finished run on 2024/06/05 at 19:59:21.382
