   * xtb version 6.6.1 (8d0f1dd) compiled by 'conda@1efc2f54142f' on 2023-08-01
          program call               : xtb struc.xyz --opt loose --input .xc1 --gfn2

   ID    Z sym.   atoms
    1    6 C      1, 3, 5-7, 10, 11, 14
    2    7 N      2, 4, 9, 13
    3    8 O      8, 12
    4    1 H      15-25
constraining bond 7 20 to    5.1400000 Å, actual value:    3.1456537 Å

          :  Hamiltonian                  GFN2-xTB          :
 * total energy  :   -35.1582442 Eh     change       -0.2401990E-09 Eh
 * total energy  :   -38.4043580 Eh     change       -0.3246114E+01 Eh
 * total energy  :   -40.6259585 Eh     change       -0.2221601E+01 Eh
 * total energy  :   -41.6817468 Eh     change       -0.1055788E+01 Eh
 * total energy  :   -41.9738788 Eh     change       -0.2921319E+00 Eh
 * total energy  :   -42.0040212 Eh     change       -0.3014240E-01 Eh
 * total energy  :   -42.0154974 Eh     change       -0.1147621E-01 Eh
 * total energy  :   -42.0360564 Eh     change       -0.2055898E-01 Eh
 * total energy  :   -42.0458448 Eh     change       -0.9788413E-02 Eh
 * total energy  :   -42.0548120 Eh     change       -0.8967208E-02 Eh
 * total energy  :   -42.1368960 Eh     change       -0.3304271E-03 Eh
 * total energy  :   -42.1371929 Eh     change       -0.2969609E-03 Eh
 * total energy  :   -42.1374207 Eh     change       -0.2277866E-03 Eh
 * total energy  :   -42.1376189 Eh     change       -0.1981981E-03 Eh
 * total energy  :   -42.1377333 Eh     change       -0.1143604E-03 Eh
 * total energy  :   -42.1378195 Eh     change       -0.8621347E-04 Eh
 * total energy  :   -42.1378903 Eh     change       -0.7080318E-04 Eh
 * total energy  :   -42.1379279 Eh     change       -0.3762284E-04 Eh
 * total energy  :   -42.1379585 Eh     change       -0.3058373E-04 Eh
   *** GEOMETRY OPTIMIZATION CONVERGED AFTER 41 ITERATIONS ***

 final structure:
================
25
 xtb: 6.6.1 (8d0f1dd)
C            3.36803149075582        1.04870935466558        0.06361759134348
N            2.37906929800146        0.00699767523001        0.03014348012836
C            2.60462911420539       -1.31035405799194       -0.00358610453046
N            1.42118717509730       -1.97795777610406       -0.01194502977836
C            0.41727502514175       -1.05595612395800        0.01618795830226
C            1.01360959409973        0.20188506109525        0.04534683315458
C            0.25538881977957        1.40984838354075        0.06038275063824
O            0.66751779640277        2.55213085901235        0.09968171391266
N           -1.16406110956802        1.14355580873730        0.01583931569414
C           -1.98529187965105        2.20610470431351       -0.00988018182401
C           -1.77049202547626       -0.14008603892072       -0.00069166926743
O           -2.96770539336317       -0.26541541572554       -0.02220236377575
N           -0.92066336800569       -1.24505091680945        0.00930408401599
C           -1.49942871280374       -2.57440244964600        0.00280883003311
H            3.84431447696638        1.09160960512462        1.04509374458124
H            4.13356891474691        0.86779620552811       -0.69013779011048
H            2.87922629923691        2.00380837016026       -0.12745687535729
H            3.56914608610056       -1.77348448124531       -0.02413562761459
H           -1.53511534001724        3.18204637728462        0.00882774638508
H           -4.82385545831991        2.07623928216661       -0.35724113426080
H           -3.06618598592345        2.05725285081119       -0.08371222614084
H           -1.19516256396750       -3.12496936140462        0.89352764003862
H           -1.19998382592849       -3.11656586460463       -0.89503597957497
H           -2.58291794660508       -2.46434528087302        0.00559480759489
H            1.31833103319488       -2.98115822878674       -0.03915989568787

          :  Hamiltonian                  GFN2-xTB          :
         :: total energy             -42.137958514275 Eh    ::
         :: gradient norm              0.003516112711 Eh/a0 ::
         :: HOMO-LUMO gap              0.132473850472 eV    ::
         :: SCC energy               -42.650682676458 Eh    ::
         :: -> dispersion             -0.022864230610 Eh    ::
         :: repulsion energy           0.512643326053 Eh    ::

    * Orbital Energies and Occupations

         #    Occupation            Energy/Eh            Energy/eV
      -------------------------------------------------------------
         1        2.0000           -0.9055471             -24.6412
       ...           ...                  ...                  ...
        25        1.9994           -0.6724514             -18.2983
        26        1.9993           -0.6682090             -18.1829
        27        1.9992           -0.6630063             -18.0413
        28        1.9970           -0.6319662             -17.1967
        29        1.9966           -0.6292395             -17.1225
        30        1.9965           -0.6281856             -17.0938
        31        1.9944           -0.6172186             -16.7954
        32        1.9939           -0.6153014             -16.7432
        33        1.9930           -0.6121297             -16.6569
        34        1.9796           -0.5864755             -15.9588
        35        1.9563           -0.5680533             -15.4575
        36        1.9323           -0.5573572             -15.1665
        37        0.9752           -0.4765803             -12.9684 (HOMO)
        38        0.8734           -0.4717120             -12.8359 (LUMO)
        39        0.2222           -0.4283614             -11.6563
        40        0.0695           -0.3988105             -10.8522
        41        0.0231           -0.3720792             -10.1248
        42        0.0007           -0.2876917              -7.8285
        43        0.0000           -0.2082012              -5.6654
        44        0.0000           -0.1948321              -5.3017
        45        0.0000           -0.1505288              -4.0961
        46        0.0000           -0.1443955              -3.9292
        47                         -0.0761614              -2.0725
        48                         -0.0517785              -1.4090
       ...                                ...                  ...
        67                          0.5386681              14.6579
      -------------------------------------------------------------
                  HL-Gap            0.0048683 Eh            0.1325 eV

     #   Z          covCN         q      C6AA      α(0)
     1   6 C        3.691    -0.091    22.432     6.778
     2   7 N        2.823     0.070    20.028     6.647
     3   6 C        3.038     0.041    27.048     8.530
     4   7 N        2.784    -0.062    22.443     7.036
     5   6 C        3.033     0.102    25.702     8.316
     6   6 C        3.098    -0.019    28.364     8.728
     7   6 C        2.773     0.250    22.808     7.822
     8   8 O        0.857    -0.356    20.831     6.119
     9   7 N        2.740    -0.030    21.826     6.939
    10   6 C        2.811    -0.022    28.540     8.753
    11   6 C        2.736     0.305    21.814     7.647
    12   8 O        0.859    -0.351    20.727     6.104
    13   7 N        2.736    -0.046    22.138     6.988
    14   6 C        3.698    -0.073    22.066     6.719
    15   1 H        0.924     0.108     1.714     2.047
    16   1 H        0.925     0.104     1.751     2.069
    17   1 H        0.925     0.132     1.517     1.926
    18   1 H        0.927     0.120     1.610     1.984
    19   1 H        0.926     0.134     1.503     1.917
    20   1 H        0.000     0.022     6.738     4.746
    21   1 H        0.924     0.134     1.503     1.917
    22   1 H        0.924     0.087     1.909     2.161
    23   1 H        0.924     0.087     1.913     2.163
    24   1 H        0.925     0.128     1.547     1.945
    25   1 H        0.860     0.226     0.982     1.552

Wiberg/Mayer (AO) data.
largest (>0.10) Wiberg bond orders for each atom

     #   Z sym  total        # sym  WBO       # sym  WBO       # sym  WBO
 ---------------------------------------------------------------------------
     1   6 C    3.911 --     2 N    0.990    16 H    0.963    17 H    0.959
                            15 H    0.953
     2   7 N    3.600 --     3 C    1.342     6 C    1.142     1 C    0.990
     3   6 C    3.734 --     2 N    1.342     4 N    1.247    18 H    0.955
     4   7 N    3.542 --     3 C    1.247     5 C    1.190    25 H    0.921
     5   6 C    3.857 --     6 C    1.310     4 N    1.190    13 N    1.183
     6   6 C    3.868 --     5 C    1.310     2 N    1.142     7 C    1.128
     7   6 C    3.835 --     8 O    1.650     6 C    1.128     9 N    0.973
     8   8 O    1.906 --     7 C    1.650
     9   7 N    3.581 --    10 C    1.332    11 C    1.024     7 C    0.973
    10   6 C    3.262 --     9 N    1.332    19 H    0.953    21 H    0.902
    11   6 C    3.878 --    12 O    1.681    13 N    1.083     9 N    1.024
    12   8 O    1.972 --    11 C    1.681    13 N    0.124
    13   7 N    3.526 --     5 C    1.183    11 C    1.083    14 C    0.974
                            12 O    0.124
    14   6 C    3.915 --    13 N    0.974    22 H    0.968    23 H    0.967
                            24 H    0.962
    15   1 H    0.978 --     1 C    0.953
    16   1 H    0.982 --     1 C    0.963
    17   1 H    0.980 --     1 C    0.959
    18   1 H    0.984 --     3 C    0.955
    19   1 H    0.976 --    10 C    0.953
    20   1 H    0.062
    21   1 H    0.978 --    10 C    0.902
    22   1 H    0.985 --    14 C    0.968
    23   1 H    0.985 --    14 C    0.967
    24   1 H    0.981 --    14 C    0.962
    25   1 H    0.948 --     4 N    0.921
 ---------------------------------------------------------------------------

molecular dipole:
                 x           y           z       tot (Debye)
 q only:        2.169      -1.900      -0.039
   full:        2.373      -2.342      -0.044       8.476

           -------------------------------------------------
          | TOTAL ENERGY              -42.137958514275 Eh   |
          | GRADIENT NORM               0.003516112711 Eh/α |
          | HOMO-LUMO GAP               0.132473850472 eV   |
           -------------------------------------------------

 * finished run on 2024/06/05 at 19:58:50.322
