   * xtb version 6.6.1 (8d0f1dd) compiled by 'conda@1efc2f54142f' on 2023-08-01
          program call               : xtb struc.xyz --opt loose --input .xc1 --gfn2

   ID    Z sym.   atoms
    1    7 N      1, 17
    2    6 C      2-6, 8, 9, 11-16, 18-23, 25, 26, 28-33
    3    8 O      7, 10, 24, 27
    4    1 H      34-72
constraining bond 55 57 to    3.2800000 Å, actual value:    1.7802806 Å

          :  Hamiltonian                  GFN2-xTB          :
 * total energy  :   -99.0025365 Eh     change       -0.4035485E-08 Eh
 * total energy  :   -99.1625768 Eh     change       -0.1600403E+00 Eh
 * total energy  :   -99.2362793 Eh     change       -0.7370256E-01 Eh
 * total energy  :   -99.2541179 Eh     change       -0.1783857E-01 Eh
 * total energy  :   -99.2570055 Eh     change       -0.2887582E-02 Eh
 * total energy  :   -99.2577961 Eh     change       -0.7905842E-03 Eh
 * total energy  :   -99.2585562 Eh     change       -0.7601056E-03 Eh
 * total energy  :   -99.2590814 Eh     change       -0.5252212E-03 Eh
 * total energy  :   -99.2599651 Eh     change       -0.8836730E-03 Eh
 * total energy  :   -99.2618630 Eh     change       -0.1897881E-02 Eh
 * total energy  :   -99.3332473 Eh     change       -0.5951046E-03 Eh
 * total energy  :   -99.3338255 Eh     change       -0.5782427E-03 Eh
 * total energy  :   -99.3341606 Eh     change       -0.3350928E-03 Eh
 * total energy  :   -99.3344016 Eh     change       -0.2410071E-03 Eh
 * total energy  :   -99.3345528 Eh     change       -0.1512133E-03 Eh
 * total energy  :   -99.3347060 Eh     change       -0.1531889E-03 Eh
 * total energy  :   -99.3347911 Eh     change       -0.8507298E-04 Eh
 * total energy  :   -99.3348413 Eh     change       -0.5019881E-04 Eh
 * total energy  :   -99.3348741 Eh     change       -0.3279175E-04 Eh
   *** GEOMETRY OPTIMIZATION CONVERGED AFTER 50 ITERATIONS ***

 final structure:
================
72
 xtb: 6.6.1 (8d0f1dd)
N           -1.91054234180398        2.86721986966871        2.26944120928863
C           -1.83905340844206        2.15769809669207        1.24369615080445
C           -2.96412533409792        1.93622519200394        0.27188144901897
C           -3.42650209181846        0.48853408522446        0.34847962564704
C           -4.33798400894144        0.00262345542511       -0.59145492852287
C           -4.80562687144868       -1.29939112302563       -0.54074366122397
O           -5.69586719728826       -1.84189027560352       -1.39937762562934
C           -6.30429995948438       -1.02124549123678       -2.36827585517974
C           -4.33978678474267       -2.17085751628235        0.47933231974808
O           -4.84269755173917       -3.42298920823700        0.44823529258278
C           -4.49988890768620       -4.32213239503931        1.47621599353774
C           -3.43450191476331       -1.68379095054611        1.40756689402508
C           -2.98746480046669       -0.36941473130115        1.34384760358618
C           -2.37376340798314        2.22575945834934       -1.13294407915586
C           -1.41440051170551        1.14112473816986       -1.65455285219570
C           -0.09846201520612        1.12962311654564       -0.97571103857675
N            0.55816399302672        0.03678991807287       -0.58752045859083
C            1.94628122283218        0.12024953565344       -0.19864372152598
C            2.87945581778030       -0.25748014228470       -1.36433705569029
C            4.32231060942797       -0.08623993741379       -0.96796105508696
C            4.95339927419561        1.09102079818019       -1.16957257063618
C            6.38604185048477        1.28980017738602       -0.82853101897234
C            6.96198665900266        0.15884319003974       -0.05472676972190
O            8.09275843821817        0.36771519093844        0.59215979699154
C            8.79719724703063        1.45382430993057        0.44991942646337
C            6.28095716700212       -1.06765693958905        0.11216138205227
O            6.98140046490991       -2.02756901921398        0.75499974618589
C            6.38624145690159       -3.28943827361118        0.95418709196540
C            4.98690059250441       -1.18712694660959       -0.35589076835790
C           -0.03858170478934       -1.27539384614070       -0.65202083066261
C           -4.19341479277215        2.85617430112816        0.53265273411205
C           -4.85968965291815        2.53069383080005        1.86748259900223
C           -3.85474319659525        4.34317770793869        0.47459979719505
H           -4.69901271826005        0.65901328291538       -1.36558930036387
H           -6.82993787008476       -0.17926629221977       -1.90765725283739
H           -7.02369310958272       -1.65793872116497       -2.87955598005311
H           -5.57591892868180       -0.64618364441128       -3.09482274965614
H           -4.79167389596228       -3.93847119092448        2.45841467602831
H           -5.05650684191828       -5.23303455952303        1.26493073725609
H           -3.42790052640937       -4.54495856768316        1.47467403216398
H           -3.07689349545830       -2.31683307415266        2.20342984664512
H           -2.30855354893552       -0.01748652134086        2.10519575106471
H           -3.19387727585173        2.32014627114312       -1.84388607902805
H           -1.84971915215562        3.18181466665388       -1.10535405715995
H           -1.90133397434039        0.16894434990074       -1.60225708339139
H           -1.23277660821065        1.36623516566736       -2.71409418577968
H           -0.91376526230236        1.64520975352676        0.91237101425124
H            0.45218934409241        2.05783838329125       -0.93869008053995
H            2.12436072508987       -0.54764733786644        0.64821934611864
H            2.17202082703626        1.14074910311333        0.11823082998296
H            2.65042250074296        0.38763903402106       -2.21415267731032
H            2.69519073718530       -1.29154786883892       -1.65751947908888
H            4.45173471758845        1.91800566972898       -1.64763003237241
H            6.94758846299980        1.46357824820600       -1.76303890897048
H            6.58242818314711        2.18475940269288       -0.20516964598281
H            8.64060176536848        2.18049653162049       -0.32529436854198
H            9.54586968741653        1.60979072440997        1.18822936372692
H            7.13520322804158       -3.88613870233833        1.47105263039714
H            5.48907481888059       -3.21596279785406        1.57657371837036
H            6.13706363837378       -3.76728615704573        0.00206823517180
H            4.45078719896451       -2.11472576763260       -0.24881663042792
H           -0.18380787755977       -1.59619032551548       -1.68619926269583
H           -1.00643491914447       -1.27842362860941       -0.14472024099974
H            0.61375904198293       -1.98978166957446       -0.15624493417754
H           -4.91518240316435        2.64345098493577       -0.26414886419547
H           -4.17901803728251        2.74585236624143        2.68464078422994
H           -5.15101806955162        1.48432018119285        1.91635638698993
H           -5.75120235649094        3.14043312023386        1.98824271150353
H           -3.11939784509956        4.59248305939990        1.23321942690621
H           -3.47782867388373        4.63622947392214       -0.50175641583545
H           -4.75412431062959        4.92101933834435        0.67077986227744
H           -1.07389991757008        2.96352706201821        2.83663889645123

          :  Hamiltonian                  GFN2-xTB          :
         :: total energy             -99.334874072393 Eh    ::
         :: gradient norm              0.002396655916 Eh/a0 ::
         :: HOMO-LUMO gap              1.157108921176 eV    ::
         :: SCC energy              -100.699807076257 Eh    ::
         :: -> dispersion             -0.075182691152 Eh    ::
         :: repulsion energy           1.363295213162 Eh    ::

    * Orbital Energies and Occupations

         #    Occupation            Energy/Eh            Energy/eV
      -------------------------------------------------------------
         1        2.0000           -0.8481645             -23.0797
       ...           ...                  ...                  ...
        78        1.9992           -0.5309334             -14.4474
        79        1.9986           -0.5229214             -14.2294
        80        1.9986           -0.5224075             -14.2154
        81        1.9985           -0.5212355             -14.1835
        82        1.9979           -0.5163221             -14.0498
        83        1.9967           -0.5090034             -13.8507
        84        1.9961           -0.5063494             -13.7785
        85        1.9954           -0.5035418             -13.7021
        86        1.9839           -0.4837654             -13.1639
        87        1.9804           -0.4805742             -13.0771
        88        1.9480           -0.4648929             -12.6504
        89        1.8929           -0.4529965             -12.3267
        90        1.6100           -0.4299668             -11.7000 (HOMO)
        91        0.4393           -0.3874439             -10.5429 (LUMO)
        92        0.1415           -0.3667423              -9.9796
        93        0.0171           -0.3322128              -9.0400
        94        0.0042           -0.3097511              -8.4288
        95        0.0036           -0.3074184              -8.3653
        96        0.0034           -0.3064789              -8.3397
        97        0.0000           -0.2283729              -6.2143
        98        0.0000           -0.1838146              -5.0019
        99                         -0.1314374              -3.5766
       100                         -0.0713117              -1.9405
       101                         -0.0618156              -1.6821
       ...                                ...                  ...
       171                          0.5795473              15.7703
      -------------------------------------------------------------
                  HL-Gap            0.0425230 Eh            1.1571 eV

     #   Z          covCN         q      C6AA      α(0)
     1   7 N        1.773    -0.272    27.881     7.819
     2   6 C        2.827     0.101    25.757     8.316
     3   6 C        3.908     0.006    20.415     6.422
     4   6 C        2.974     0.002    27.982     8.677
     5   6 C        2.921    -0.080    30.001     8.982
     6   6 C        2.862     0.128    25.184     8.226
     7   8 O        1.706    -0.233    17.870     5.708
     8   6 C        3.644     0.029    20.428     6.496
     9   6 C        2.864     0.127    25.209     8.230
    10   8 O        1.706    -0.232    17.852     5.705
    11   6 C        3.645     0.028    20.433     6.496
    12   6 C        2.914    -0.075    29.880     8.964
    13   6 C        2.921    -0.054    29.342     8.883
    14   6 C        3.813    -0.064    21.723     6.634
    15   6 C        3.802    -0.068    21.802     6.648
    16   6 C        2.842     0.002    27.969     8.667
    17   7 N        2.729     0.003    21.217     6.841
    18   6 C        3.754    -0.015    20.904     6.519
    19   6 C        3.809    -0.073    21.882     6.659
    20   6 C        2.955     0.006    27.889     8.662
    21   6 C        2.908    -0.060    29.503     8.906
    22   6 C        3.808    -0.069    21.814     6.649
    23   6 C        2.888     0.086    26.086     8.374
    24   8 O        1.711    -0.077    15.512     5.318
    25   6 C        2.762    -0.001    28.021     8.669
    26   6 C        2.848     0.137    25.013     8.197
    27   8 O        1.706    -0.239    17.967     5.723
    28   6 C        3.645     0.028    20.445     6.499
    29   6 C        2.917    -0.094    30.368     9.037
    30   6 C        3.699    -0.068    21.980     6.705
    31   6 C        3.853    -0.007    20.673     6.467
    32   6 C        3.756    -0.118    22.819     6.811
    33   6 C        3.755    -0.118    22.812     6.810
    34   1 H        0.926     0.051     2.313     2.378
    35   1 H        0.924     0.052     2.291     2.367
    36   1 H        0.925     0.079     1.986     2.204
    37   1 H        0.924     0.046     2.372     2.409
    38   1 H        0.924     0.053     2.279     2.361
    39   1 H        0.925     0.079     1.987     2.204
    40   1 H        0.924     0.046     2.370     2.408
    41   1 H        0.926     0.050     2.323     2.384
    42   1 H        0.926     0.037     2.490     2.468
    43   1 H        0.925     0.058     2.220     2.330
    44   1 H        0.924     0.052     2.298     2.371
    45   1 H        0.925     0.065     2.144     2.290
    46   1 H        0.923     0.076     2.024     2.225
    47   1 H        0.922     0.006     2.956     2.689
    48   1 H        0.926     0.065     2.145     2.290
    49   1 H        0.924     0.066     2.132     2.284
    50   1 H        0.924     0.065     2.139     2.287
    51   1 H        0.924     0.053     2.277     2.360
    52   1 H        0.924     0.058     2.224     2.332
    53   1 H        0.926     0.046     2.372     2.408
    54   1 H        0.923     0.076     2.019     2.222
    55   1 H        0.922     0.070     2.089     2.260
    56   1 H        0.926     0.060     2.199     2.319
    57   1 H        0.927     0.084     1.934     2.175
    58   1 H        0.925     0.081     1.971     2.196
    59   1 H        0.924     0.049     2.337     2.391
    60   1 H        0.924     0.053     2.285     2.364
    61   1 H        0.926     0.047     2.355     2.400
    62   1 H        0.924     0.073     2.053     2.241
    63   1 H        0.924     0.079     1.993     2.208
    64   1 H        0.925     0.077     2.014     2.219
    65   1 H        0.924     0.036     2.507     2.476
    66   1 H        0.925     0.068     2.107     2.270
    67   1 H        0.925     0.035     2.520     2.483
    68   1 H        0.925     0.049     2.328     2.386
    69   1 H        0.925     0.060     2.205     2.322
    70   1 H        0.925     0.033     2.542     2.493
    71   1 H        0.925     0.053     2.286     2.365
    72   1 H        0.860     0.154     1.374     1.837

Wiberg/Mayer (AO) data.
largest (>0.10) Wiberg bond orders for each atom

     #   Z sym  total        # sym  WBO       # sym  WBO       # sym  WBO
 ---------------------------------------------------------------------------
     1   7 N    3.039 --     2 C    1.953    72 H    0.943
     2   6 C    3.924 --     1 N    1.953     3 C    0.996    47 H    0.897
     3   6 C    3.977 --     2 C    0.996     4 C    0.969    14 C    0.957
                            31 C    0.944
     4   6 C    3.954 --    13 C    1.418     5 C    1.367     3 C    0.969
     5   6 C    3.965 --     6 C    1.404     4 C    1.367    34 H    0.958
     6   6 C    3.910 --     5 C    1.404     9 C    1.226     7 O    1.095
     7   8 O    2.253 --     6 C    1.095     8 C    0.979
     8   6 C    3.934 --     7 O    0.979    36 H    0.977    35 H    0.974
                            37 H    0.974
     9   6 C    3.906 --    12 C    1.396     6 C    1.226    10 O    1.096
    10   8 O    2.251 --     9 C    1.096    11 C    0.979
    11   6 C    3.934 --    10 O    0.979    39 H    0.977    40 H    0.974
                            38 H    0.974
    12   6 C    3.965 --    13 C    1.401     9 C    1.396    41 H    0.964
    13   6 C    3.959 --     4 C    1.418    12 C    1.401    42 H    0.963
    14   6 C    3.973 --    15 C    0.983    44 H    0.973    43 H    0.969
                             3 C    0.957
    15   6 C    3.987 --    16 C    1.058    14 C    0.983    45 H    0.962
                            46 H    0.929
    16   6 C    3.564 --    17 N    1.376    15 C    1.058    48 H    0.958
    17   7 N    3.455 --    16 C    1.376    30 C    1.000    18 C    0.990
    18   6 C    3.960 --    17 N    0.990    19 C    0.969    50 H    0.968
                            49 H    0.965
    19   6 C    3.977 --    20 C    1.004    51 H    0.973    52 H    0.971
                            18 C    0.969
    20   6 C    3.968 --    21 C    1.658    29 C    1.219    19 C    1.004
    21   6 C    3.839 --    20 C    1.658    22 C    1.041    53 H    0.967
    22   6 C    3.986 --    21 C    1.041    23 C    1.028    55 H    0.922
                            54 H    0.918
    23   6 C    3.773 --    26 C    1.242    24 O    1.170    22 C    1.028
                            25 C    0.213
    24   8 O    2.549 --    25 C    1.265    23 C    1.170
    25   6 C    3.573 --    24 O    1.265    57 H    0.970    56 H    0.966
                            23 C    0.213
    26   6 C    3.901 --    29 C    1.412    23 C    1.242    27 O    1.094
    27   8 O    2.258 --    26 C    1.094    28 C    0.976
    28   6 C    3.933 --    58 H    0.977    27 O    0.976    59 H    0.975
                            60 H    0.975
    29   6 C    3.808 --    26 C    1.412    20 C    1.219    61 H    0.965
    30   6 C    3.959 --    17 N    1.000    64 H    0.978    62 H    0.967
                            63 H    0.962
    31   6 C    3.975 --    33 C    1.009    32 C    1.008    65 H    0.961
                             3 C    0.944
    32   6 C    3.981 --    31 C    1.008    67 H    0.982    68 H    0.982
                            66 H    0.975
    33   6 C    3.985 --    31 C    1.009    70 H    0.983    71 H    0.981
                            69 H    0.977
    34   1 H    0.996 --     5 C    0.958
    35   1 H    0.994 --     8 C    0.974
    36   1 H    0.993 --     8 C    0.977
    37   1 H    0.995 --     8 C    0.974
    38   1 H    0.994 --    11 C    0.974
    39   1 H    0.993 --    11 C    0.977
    40   1 H    0.994 --    11 C    0.974
    41   1 H    0.996 --    12 C    0.964
    42   1 H    0.998 --    13 C    0.963
    43   1 H    0.995 --    14 C    0.969
    44   1 H    0.996 --    14 C    0.973
    45   1 H    0.995 --    15 C    0.962
    46   1 H    0.969 --    15 C    0.929
    47   1 H    0.989 --     2 C    0.897
    48   1 H    0.995 --    16 C    0.958
    49   1 H    0.992 --    18 C    0.965
    50   1 H    0.994 --    18 C    0.968
    51   1 H    0.996 --    19 C    0.973
    52   1 H    0.996 --    19 C    0.971
    53   1 H    0.998 --    21 C    0.967
    54   1 H    0.964 --    22 C    0.918
    55   1 H    0.976 --    22 C    0.922
    56   1 H    0.996 --    25 C    0.966
    57   1 H    0.992 --    25 C    0.970
    58   1 H    0.993 --    28 C    0.977
    59   1 H    0.995 --    28 C    0.975
    60   1 H    0.995 --    28 C    0.975
    61   1 H    0.997 --    29 C    0.965
    62   1 H    0.985 --    30 C    0.967
    63   1 H    0.987 --    30 C    0.962
    64   1 H    0.994 --    30 C    0.978
    65   1 H    0.994 --    31 C    0.961
    66   1 H    0.992 --    32 C    0.975
    67   1 H    0.997 --    32 C    0.982
    68   1 H    0.995 --    32 C    0.982
    69   1 H    0.994 --    33 C    0.977
    70   1 H    0.998 --    33 C    0.983
    71   1 H    0.994 --    33 C    0.981
    72   1 H    0.972 --     1 N    0.943
 ---------------------------------------------------------------------------

molecular dipole:
                 x           y           z       tot (Debye)
 q only:        2.139       0.069      -0.766
   full:        2.511       0.002      -0.938       6.813

           -------------------------------------------------
          | TOTAL ENERGY              -99.334874072393 Eh   |
          | GRADIENT NORM               0.002396655916 Eh/α |
          | HOMO-LUMO GAP               1.157108921176 eV   |
           -------------------------------------------------

 * finished run on 2024/04/06 at 11:15:16.000
