   * xtb version 6.6.1 (8d0f1dd) compiled by 'conda@1efc2f54142f' on 2023-08-01
          program call               : xtb xtbopt.xyz --opt crude --input .xc2 --gfn2

   ID    Z sym.   atoms
    1    7 N      1, 17
    2    6 C      2-6, 8, 9, 11-16, 18-23, 25, 26, 28-33
    3    8 O      7, 10, 24, 27
    4    1 H      34-72
########################################################################
[WARNING] Please study the warnings concerning your input carefully
-1- readin_getIntValue: could not parse ''
########################################################################

          :  Hamiltonian                  GFN2-xTB          :
 * total energy  :   -99.3352321 Eh     change       -0.1705303E-11 Eh
 * total energy  :   -99.3372481 Eh     change       -0.2016085E-02 Eh
 * total energy  :   -99.3383724 Eh     change       -0.1124262E-02 Eh
 * total energy  :   -99.3388612 Eh     change       -0.4887735E-03 Eh
   *** GEOMETRY OPTIMIZATION CONVERGED AFTER 4 ITERATIONS ***

 final structure:
================
72
 xtb: 6.6.1 (8d0f1dd)
N           -1.91150160850538        2.86860483475789        2.27225710487694
C           -1.83916306957414        2.15713631150479        1.24786954330850
C           -2.96370831362319        1.93680403252279        0.27488872463500
C           -3.42588674703301        0.48907769920517        0.35101779831766
C           -4.33570100187094        0.00276759131648       -0.59031863401138
C           -4.80297874274294       -1.29936835707624       -0.54028510387770
O           -5.69167559431949       -1.84236300114000       -1.40020189072773
C           -6.29815456638458       -1.02244081917078       -2.37081789143673
C           -4.33844694129993       -2.17062375269927        0.48050170553427
O           -4.84054648792415       -3.42313431671707        0.44835839482403
C           -4.49871630632200       -4.32206382583229        1.47680648269219
C           -3.43501623678526       -1.68312595088573        1.41027060780242
C           -2.98829960281033       -0.36857484818656        1.34722929074949
C           -2.37285979091638        2.22761932357228       -1.12953845737727
C           -1.41758011055586        1.14101117552145       -1.65392864605124
C           -0.10085246120639        1.12530138816320       -0.97703364221656
N            0.55233834512689        0.03028358224068       -0.58886627779131
C            1.94369971227247        0.10760212898723       -0.21275812735974
C            2.86438352742667       -0.28111246296718       -1.38513064065877
C            4.30647690239596       -0.09878936157430       -0.99555878269261
C            4.93191611900150        1.07420350654152       -1.22485174333483
C            6.34569965370538        1.32478647585303       -0.83259873281462
C            6.93730292855201        0.21348054852464       -0.02252603451279
O            8.10489421822804        0.35651543587861        0.58413990271632
C            8.88943873343800        1.39247595736148        0.49429911935219
C            6.26518933207440       -1.02405338505460        0.13145996933298
O            6.97388425966458       -1.98055288619386        0.77083050699889
C            6.39458475940820       -3.25232396723391        0.95840504578495
C            4.97856903249438       -1.17304206003758       -0.34877863115944
C           -0.04814614274474       -1.28001741272151       -0.65138347266661
C           -4.19324790160697        2.85640789777620        0.53469143339990
C           -4.86071981812772        2.53130137412173        1.86897689514629
C           -3.85498937897565        4.34351036989075        0.47596046867419
H           -4.69543020510481        0.65905508523587       -1.36516522864792
H           -6.82506721603665       -0.18034386575581       -1.91192798125721
H           -7.01618450012432       -1.65968775681286       -2.88328308651399
H           -5.56829287326996       -0.64751324117889       -3.09593798384476
H           -4.79206030163623       -3.93856041337847        2.45857812214064
H           -5.05451771113791       -5.23329512139430        1.26480511982302
H           -3.42659891863607       -4.54428398927854        1.47672060305356
H           -3.07853858431632       -2.31603595227957        2.20673865997725
H           -2.31065313191831       -0.01665526478101        2.10968714531534
H           -3.19277714454940        2.32707921170758       -1.84005104645182
H           -1.84525039059446        3.18170830854301       -1.09941776252637
H           -1.90684547873255        0.17004791830870       -1.60175203678407
H           -1.23658433364683        1.36648608872068       -2.71353763018314
H           -0.91417887785305        1.64355456127683        0.91797918884860
H            0.45262090278362        2.05185804295741       -0.94052651189122
H            2.12624572230785       -0.55674701852880        0.63582463738448
H            2.17768698487189        1.12838705533436        0.09715818219311
H            2.62839509136267        0.35777744309678       -2.23747906345285
H            2.67845559297286       -1.31765958902474       -1.66723497000212
H            4.42734621922589        1.88585147421647       -1.72610898878984
H            6.94897634308939        1.49366405156781       -1.74023562848430
H            6.39554743949609        2.26769723646292       -0.26007502712102
H            8.68970194278486        2.22350156929321       -0.16967675073898
H            9.75258496756881        1.38243740387731        1.14474264641599
H            7.14947143715947       -3.84478195557688        1.47144669180343
H            5.49590674996601       -3.19485552683329        1.57991576000868
H            6.15134448638332       -3.72682242773535        0.00304683891393
H            4.45986598828189       -2.11004129540669       -0.23934733155643
H           -0.19442475595181       -1.60189904433998       -1.68509030777281
H           -1.01556521595533       -1.27958594600190       -0.14350711019597
H            0.60275636970679       -1.99519075019630       -0.15473916711995
H           -4.91432427864319        2.64308124803191       -0.26262234433388
H           -4.18117760402044        2.74739600402048        2.68682518471217
H           -5.15136067386402        1.48473757971869        1.91803475109773
H           -5.75284414413178        3.14046295374065        1.98819154112306
H           -3.11936910389511        4.59334903690566        1.23409664199509
H           -3.47853512285648        4.63616172153503       -0.50070928022473
H           -4.75450096629817        4.92111853409801        0.67219856233778
H           -1.07549580824355        2.96538292610162        2.84031351789731

          :  Hamiltonian                  GFN2-xTB          :
         :: total energy             -99.338861180813 Eh    ::
         :: gradient norm              0.009417928051 Eh/a0 ::
         :: HOMO-LUMO gap              1.139619611510 eV    ::
         :: SCC energy              -100.698423586377 Eh    ::
         :: -> dispersion             -0.075161627362 Eh    ::
         :: repulsion energy           1.358278435536 Eh    ::

    * Orbital Energies and Occupations

         #    Occupation            Energy/Eh            Energy/eV
      -------------------------------------------------------------
         1        2.0000           -0.8468105             -23.0429
       ...           ...                  ...                  ...
        78        1.9992           -0.5304195             -14.4334
        79        1.9987           -0.5225463             -14.2192
        80        1.9986           -0.5220762             -14.2064
        81        1.9985           -0.5211617             -14.1815
        82        1.9980           -0.5159146             -14.0388
        83        1.9967           -0.5085755             -13.8390
        84        1.9962           -0.5059094             -13.7665
        85        1.9954           -0.5031336             -13.6910
        86        1.9841           -0.4833370             -13.1523
        87        1.9817           -0.4811019             -13.0914
        88        1.9483           -0.4643879             -12.6366
        89        1.8941           -0.4525885             -12.3156
        90        1.6002           -0.4288799             -11.6704 (HOMO)
        91        0.4426           -0.3869997             -10.5308 (LUMO)
        92        0.1447           -0.3665308              -9.9738
        93        0.0171           -0.3316626              -9.0250
        94        0.0042           -0.3093221              -8.4171
        95        0.0035           -0.3063134              -8.3352
        96        0.0034           -0.3059731              -8.3260
        97        0.0000           -0.2275704              -6.1925
        98        0.0000           -0.1833714              -4.9898
        99                         -0.1300007              -3.5375
       100                         -0.0732523              -1.9933
       101                         -0.0612372              -1.6663
       ...                                ...                  ...
       171                          0.5800641              15.7843
      -------------------------------------------------------------
                  HL-Gap            0.0418803 Eh            1.1396 eV

     #   Z          covCN         q      C6AA      α(0)
     1   7 N        1.773    -0.273    27.890     7.820
     2   6 C        2.827     0.101    25.757     8.316
     3   6 C        3.908     0.006    20.416     6.422
     4   6 C        2.974     0.002    27.983     8.677
     5   6 C        2.921    -0.080    30.003     8.982
     6   6 C        2.862     0.128    25.186     8.226
     7   8 O        1.706    -0.234    17.873     5.708
     8   6 C        3.644     0.029    20.426     6.496
     9   6 C        2.864     0.127    25.212     8.230
    10   8 O        1.706    -0.233    17.856     5.705
    11   6 C        3.645     0.028    20.432     6.496
    12   6 C        2.914    -0.075    29.882     8.964
    13   6 C        2.921    -0.054    29.342     8.883
    14   6 C        3.813    -0.064    21.721     6.634
    15   6 C        3.802    -0.068    21.802     6.648
    16   6 C        2.842     0.002    27.978     8.669
    17   7 N        2.729     0.003    21.219     6.841
    18   6 C        3.755    -0.015    20.901     6.519
    19   6 C        3.810    -0.073    21.880     6.658
    20   6 C        2.955     0.006    27.886     8.661
    21   6 C        2.908    -0.061    29.522     8.909
    22   6 C        3.807    -0.068    21.806     6.647
    23   6 C        2.866     0.084    26.122     8.378
    24   8 O        1.711    -0.074    15.474     5.311
    25   6 C        2.741     0.003    27.929     8.653
    26   6 C        2.848     0.137    25.004     8.195
    27   8 O        1.706    -0.239    17.968     5.723
    28   6 C        3.644     0.027    20.450     6.500
    29   6 C        2.916    -0.094    30.374     9.038
    30   6 C        3.699    -0.068    21.979     6.705
    31   6 C        3.853    -0.007    20.673     6.467
    32   6 C        3.756    -0.118    22.818     6.811
    33   6 C        3.755    -0.118    22.812     6.810
    34   1 H        0.926     0.050     2.314     2.379
    35   1 H        0.924     0.052     2.292     2.368
    36   1 H        0.925     0.079     1.987     2.204
    37   1 H        0.924     0.046     2.374     2.409
    38   1 H        0.924     0.053     2.280     2.362
    39   1 H        0.925     0.079     1.988     2.205
    40   1 H        0.924     0.046     2.371     2.408
    41   1 H        0.926     0.050     2.325     2.384
    42   1 H        0.926     0.037     2.491     2.468
    43   1 H        0.925     0.058     2.221     2.331
    44   1 H        0.924     0.052     2.300     2.372
    45   1 H        0.925     0.065     2.144     2.290
    46   1 H        0.923     0.075     2.027     2.227
    47   1 H        0.922     0.006     2.961     2.691
    48   1 H        0.926     0.064     2.149     2.293
    49   1 H        0.924     0.066     2.133     2.284
    50   1 H        0.924     0.065     2.142     2.289
    51   1 H        0.924     0.053     2.277     2.360
    52   1 H        0.924     0.058     2.226     2.333
    53   1 H        0.926     0.045     2.377     2.411
    54   1 H        0.923     0.076     2.017     2.221
    55   1 H        0.923     0.070     2.090     2.261
    56   1 H        0.925     0.058     2.224     2.332
    57   1 H        0.926     0.087     1.907     2.159
    58   1 H        0.925     0.081     1.972     2.196
    59   1 H        0.924     0.049     2.336     2.390
    60   1 H        0.924     0.053     2.285     2.364
    61   1 H        0.926     0.047     2.353     2.399
    62   1 H        0.924     0.073     2.055     2.242
    63   1 H        0.924     0.079     1.992     2.207
    64   1 H        0.925     0.077     2.015     2.220
    65   1 H        0.924     0.036     2.508     2.477
    66   1 H        0.925     0.068     2.108     2.271
    67   1 H        0.925     0.035     2.521     2.483
    68   1 H        0.925     0.049     2.330     2.387
    69   1 H        0.925     0.059     2.205     2.322
    70   1 H        0.925     0.033     2.543     2.494
    71   1 H        0.925     0.053     2.288     2.365
    72   1 H        0.860     0.154     1.376     1.838

Wiberg/Mayer (AO) data.
largest (>0.10) Wiberg bond orders for each atom

     #   Z sym  total        # sym  WBO       # sym  WBO       # sym  WBO
 ---------------------------------------------------------------------------
     1   7 N    3.038 --     2 C    1.953    72 H    0.943
     2   6 C    3.925 --     1 N    1.953     3 C    0.996    47 H    0.898
     3   6 C    3.977 --     2 C    0.996     4 C    0.969    14 C    0.957
                            31 C    0.944
     4   6 C    3.954 --    13 C    1.418     5 C    1.367     3 C    0.969
     5   6 C    3.965 --     6 C    1.404     4 C    1.367    34 H    0.958
     6   6 C    3.910 --     5 C    1.404     9 C    1.226     7 O    1.094
     7   8 O    2.253 --     6 C    1.094     8 C    0.979
     8   6 C    3.934 --     7 O    0.979    36 H    0.977    35 H    0.974
                            37 H    0.974
     9   6 C    3.907 --    12 C    1.396     6 C    1.226    10 O    1.096
    10   8 O    2.251 --     9 C    1.096    11 C    0.979
    11   6 C    3.934 --    10 O    0.979    39 H    0.977    40 H    0.974
                            38 H    0.974
    12   6 C    3.965 --    13 C    1.400     9 C    1.396    41 H    0.964
    13   6 C    3.959 --     4 C    1.418    12 C    1.400    42 H    0.963
    14   6 C    3.973 --    15 C    0.983    44 H    0.973    43 H    0.969
                             3 C    0.957
    15   6 C    3.987 --    16 C    1.058    14 C    0.983    45 H    0.962
                            46 H    0.929
    16   6 C    3.561 --    17 N    1.375    15 C    1.058    48 H    0.958
    17   7 N    3.454 --    16 C    1.375    30 C    1.000    18 C    0.990
    18   6 C    3.960 --    17 N    0.990    19 C    0.969    50 H    0.968
                            49 H    0.965
    19   6 C    3.977 --    20 C    1.004    51 H    0.973    52 H    0.971
                            18 C    0.969
    20   6 C    3.966 --    21 C    1.661    29 C    1.216    19 C    1.004
    21   6 C    3.837 --    20 C    1.661    22 C    1.039    53 H    0.967
    22   6 C    3.986 --    21 C    1.039    23 C    1.020    55 H    0.931
                            54 H    0.921
    23   6 C    3.765 --    26 C    1.238    24 O    1.169    22 C    1.020
                            25 C    0.218
    24   8 O    2.556 --    25 C    1.275    23 C    1.169
    25   6 C    3.571 --    24 O    1.275    56 H    0.968    57 H    0.968
                            23 C    0.218
    26   6 C    3.898 --    29 C    1.415    23 C    1.238    27 O    1.095
    27   8 O    2.258 --    26 C    1.095    28 C    0.976
    28   6 C    3.933 --    58 H    0.977    27 O    0.976    59 H    0.975
                            60 H    0.975
    29   6 C    3.805 --    26 C    1.415    20 C    1.216    61 H    0.964
    30   6 C    3.959 --    17 N    1.000    64 H    0.978    62 H    0.967
                            63 H    0.962
    31   6 C    3.975 --    33 C    1.009    32 C    1.008    65 H    0.961
                             3 C    0.944
    32   6 C    3.982 --    31 C    1.008    67 H    0.982    68 H    0.982
                            66 H    0.975
    33   6 C    3.985 --    31 C    1.009    70 H    0.983    71 H    0.981
                            69 H    0.977
    34   1 H    0.996 --     5 C    0.958
    35   1 H    0.994 --     8 C    0.974
    36   1 H    0.993 --     8 C    0.977
    37   1 H    0.995 --     8 C    0.974
    38   1 H    0.994 --    11 C    0.974
    39   1 H    0.993 --    11 C    0.977
    40   1 H    0.994 --    11 C    0.974
    41   1 H    0.996 --    12 C    0.964
    42   1 H    0.998 --    13 C    0.963
    43   1 H    0.995 --    14 C    0.969
    44   1 H    0.996 --    14 C    0.973
    45   1 H    0.995 --    15 C    0.962
    46   1 H    0.969 --    15 C    0.929
    47   1 H    0.989 --     2 C    0.898
    48   1 H    0.995 --    16 C    0.958
    49   1 H    0.992 --    18 C    0.965
    50   1 H    0.994 --    18 C    0.968
    51   1 H    0.996 --    19 C    0.973
    52   1 H    0.996 --    19 C    0.971
    53   1 H    0.998 --    21 C    0.967
    54   1 H    0.965 --    22 C    0.921
    55   1 H    0.974 --    22 C    0.931
    56   1 H    0.996 --    25 C    0.968
    57   1 H    0.992 --    25 C    0.968
    58   1 H    0.993 --    28 C    0.977
    59   1 H    0.995 --    28 C    0.975
    60   1 H    0.995 --    28 C    0.975
    61   1 H    0.997 --    29 C    0.964
    62   1 H    0.984 --    30 C    0.967
    63   1 H    0.987 --    30 C    0.962
    64   1 H    0.994 --    30 C    0.978
    65   1 H    0.994 --    31 C    0.961
    66   1 H    0.992 --    32 C    0.975
    67   1 H    0.997 --    32 C    0.982
    68   1 H    0.995 --    32 C    0.982
    69   1 H    0.994 --    33 C    0.977
    70   1 H    0.998 --    33 C    0.983
    71   1 H    0.994 --    33 C    0.981
    72   1 H    0.972 --     1 N    0.943
 ---------------------------------------------------------------------------

molecular dipole:
                 x           y           z       tot (Debye)
 q only:        2.270       0.057      -0.743
   full:        2.635       0.011      -0.910       7.085

           -------------------------------------------------
          | TOTAL ENERGY              -99.338861180813 Eh   |
          | GRADIENT NORM               0.009417928051 Eh/α |
          | HOMO-LUMO GAP               1.139619611510 eV   |
           -------------------------------------------------

 * finished run on 2024/04/06 at 11:15:16.973
