   * xtb version 6.6.1 (8d0f1dd) compiled by 'conda@1efc2f54142f' on 2023-08-01
          program call               : xtb xtbopt.xyz --opt crude --input .xc2 --gfn2

   ID    Z sym.   atoms
    1    6 C      1, 3, 5-7, 10, 11, 14
    2    7 N      2, 4, 9, 13
    3    8 O      8, 12
    4    1 H      15-25
########################################################################
[WARNING] Please study the warnings concerning your input carefully
-1- readin_getIntValue: could not parse ''
########################################################################

          :  Hamiltonian                  GFN2-xTB          :
 * total energy  :   -42.1268564 Eh     change       -0.1776357E-12 Eh
 * total energy  :   -42.1276188 Eh     change       -0.7623664E-03 Eh
 * total energy  :   -42.1280586 Eh     change       -0.4397766E-03 Eh
   *** GEOMETRY OPTIMIZATION CONVERGED AFTER 3 ITERATIONS ***

 final structure:
================
25
 xtb: 6.6.1 (8d0f1dd)
C            3.06555696225741        1.02674926802646        0.19511107415280
N            2.29023713104320        1.93426449011523       -0.62567924140730
C            2.39633132272643       -0.30585120163689        0.17417430925131
N            0.75404285601165       -2.79741566456143       -0.28834468846252
C            0.28206118125510       -1.63497349275878       -0.10116187436771
C            1.05029871607776       -0.37551239620583       -0.03149353134495
C            0.30969104734170        0.84690103874454       -0.11016664199701
O            0.92621072629852        2.01431152401994       -0.22757034049967
N           -1.01282965305281        0.85341695723102        0.01282704547882
C           -1.78655182405565        2.08086055780637        0.02233368179471
C           -1.77749724501010       -0.34534043715222        0.14272432711580
O           -2.96164289947812       -0.26776071914766        0.30434757617938
N           -1.08334757972988       -1.51972853400543        0.04227830818163
C           -1.84501333263172       -2.75730259720265        0.03773518539742
H            3.19214994791138        1.36775706862645        1.23940791793526
H            4.05849754643892        0.96754510605138       -0.25730852601564
H            2.62788615720361        2.89420407300523       -0.64271486241894
H            2.98436399367041       -1.18507872476015        0.37675102671112
H           -1.12318990043151        2.93597856395982       -0.05549032965417
H           -2.48974121997599        2.07038931005445       -0.81113874472422
H           -2.36630789007067        2.13205917317801        0.94461768784429
H           -1.54696170067684       -3.37403202218143        0.88480980606196
H           -1.62747964852652       -3.30741260595791       -0.87749055448474
H           -2.90394435333966       -2.51964532147885        0.09904174511271
H            1.74761117284491       -2.91614487216995       -0.41642873793988

          :  Hamiltonian                  GFN2-xTB          :
         :: total energy             -42.128058554638 Eh    ::
         :: gradient norm              0.006056402555 Eh/a0 ::
         :: HOMO-LUMO gap              1.758251741507 eV    ::
         :: SCC energy               -42.634024452277 Eh    ::
         :: -> dispersion             -0.022477548195 Eh    ::
         :: repulsion energy           0.505826564759 Eh    ::

    * Orbital Energies and Occupations

         #    Occupation            Energy/Eh            Energy/eV
      -------------------------------------------------------------
         1        2.0000           -0.9423543             -25.6428
       ...           ...                  ...                  ...
        25        1.9999           -0.6703192             -18.2403
        26        1.9999           -0.6640747             -18.0704
        27        1.9997           -0.6491388             -17.6640
        28        1.9994           -0.6383189             -17.3695
        29        1.9992           -0.6332670             -17.2321
        30        1.9991           -0.6309760             -17.1697
        31        1.9975           -0.6158776             -16.7589
        32        1.9961           -0.6083892             -16.5551
        33        1.9878           -0.5903963             -16.0655
        34        1.9868           -0.5891878             -16.0326
        35        1.9301           -0.5623181             -15.3015
        36        1.9075           -0.5576960             -15.1757
        37        1.8495           -0.5495020             -14.9527 (HOMO)
        38        0.3438           -0.4848874             -13.1945 (LUMO)
        39        0.0035           -0.4093722             -11.1396
        40        0.0005           -0.3792224             -10.3192
        41        0.0000           -0.2992912              -8.1441
        42        0.0000           -0.2828348              -7.6963
        43                         -0.1912114              -5.2031
        44                         -0.1480386              -4.0283
        45                         -0.1304211              -3.5489
        46                         -0.1026772              -2.7940
        47                         -0.0849451              -2.3115
        48                         -0.0565698              -1.5393
       ...                                ...                  ...
        67                          0.5340330              14.5318
      -------------------------------------------------------------
                  HL-Gap            0.0646146 Eh            1.7583 eV

     #   Z          covCN         q      C6AA      α(0)
     1   6 C        3.739    -0.005    20.744     6.499
     2   7 N        2.704    -0.078    22.759     7.085
     3   6 C        2.912    -0.007    28.196     8.707
     4   7 N        1.792    -0.269    27.809     7.811
     5   6 C        2.831     0.162    24.502     8.111
     6   6 C        2.958    -0.035    28.873     8.813
     7   6 C        2.809     0.224    23.283     7.905
     8   8 O        1.766    -0.138    16.369     5.463
     9   7 N        2.739    -0.031    21.851     6.943
    10   6 C        3.703    -0.072    22.046     6.713
    11   6 C        2.721     0.317    21.614     7.611
    12   8 O        0.859    -0.337    20.457     6.064
    13   7 N        2.755    -0.038    21.972     6.962
    14   6 C        3.710    -0.076    22.100     6.719
    15   1 H        0.922     0.089     1.891     2.151
    16   1 H        0.924     0.118     1.631     1.997
    17   1 H        0.860     0.211     1.050     1.605
    18   1 H        0.926     0.098     1.805     2.101
    19   1 H        0.925     0.104     1.752     2.070
    20   1 H        0.924     0.117     1.637     2.001
    21   1 H        0.924     0.119     1.622     1.992
    22   1 H        0.925     0.108     1.712     2.046
    23   1 H        0.925     0.112     1.679     2.027
    24   1 H        0.925     0.117     1.634     1.999
    25   1 H        0.860     0.190     1.159     1.687

Wiberg/Mayer (AO) data.
largest (>0.10) Wiberg bond orders for each atom

     #   Z sym  total        # sym  WBO       # sym  WBO       # sym  WBO
 ---------------------------------------------------------------------------
     1   6 C    3.953 --     3 C    1.044     2 N    1.007    16 H    0.935
                            15 H    0.922
     2   7 N    2.994 --     1 C    1.007     8 O    0.948    17 H    0.932
     3   6 C    3.741 --     6 C    1.587     1 C    1.044    18 H    0.957
     4   7 N    2.907 --     5 C    1.722    25 H    0.929
     5   6 C    3.951 --     4 N    1.722    13 N    1.128     6 C    1.018
     6   6 C    3.922 --     3 C    1.587     7 C    1.143     5 C    1.018
     7   6 C    3.801 --     9 N    1.323     8 O    1.173     6 C    1.143
     8   8 O    2.319 --     7 C    1.173     2 N    0.948
     9   7 N    3.576 --     7 C    1.323    11 C    0.989    10 C    0.972
    10   6 C    3.911 --    19 H    0.972     9 N    0.972    21 H    0.956
                            20 H    0.955
    11   6 C    3.941 --    12 O    1.714    13 N    1.154     9 N    0.989
    12   8 O    2.040 --    11 C    1.714    13 N    0.140
    13   7 N    3.554 --    11 C    1.154     5 C    1.128    14 C    0.969
                            12 O    0.140
    14   6 C    3.895 --    13 N    0.969    24 H    0.967    22 H    0.957
                            23 H    0.955
    15   1 H    0.967 --     1 C    0.922
    16   1 H    0.978 --     1 C    0.935
    17   1 H    0.953 --     2 N    0.932
    18   1 H    0.988 --     3 C    0.957
    19   1 H    0.988 --    10 C    0.972
    20   1 H    0.977 --    10 C    0.955
    21   1 H    0.978 --    10 C    0.956
    22   1 H    0.976 --    14 C    0.957
    23   1 H    0.975 --    14 C    0.955
    24   1 H    0.983 --    14 C    0.967
    25   1 H    0.956 --     4 N    0.929
 ---------------------------------------------------------------------------

molecular dipole:
                 x           y           z       tot (Debye)
 q only:        1.653       0.523      -0.049
   full:        2.234       1.008       0.167       6.245

           -------------------------------------------------
          | TOTAL ENERGY              -42.128058554638 Eh   |
          | GRADIENT NORM               0.006056402555 Eh/α |
          | HOMO-LUMO GAP               1.758251741507 eV   |
           -------------------------------------------------

 * finished run on 2024/06/05 at 19:57:49.413
