   * xtb version 6.6.1 (8d0f1dd) compiled by 'conda@1efc2f54142f' on 2023-08-01
          program call               : xtb xtbopt.xyz --opt crude --input .xc2 --gfn2

   ID    Z sym.   atoms
    1    7 N      1, 17
    2    6 C      2-6, 8, 9, 11-16, 18-23, 25, 26, 28-33
    3    8 O      7, 10, 24, 27
    4    1 H      34-72

          :  Hamiltonian                  GFN2-xTB          :
 * total energy  :   -99.3351109 Eh     change       -0.4618528E-11 Eh
   *** GEOMETRY OPTIMIZATION CONVERGED AFTER 1 ITERATIONS ***

 final structure:
================
72
 xtb: 6.6.1 (8d0f1dd)
N           -2.68667543170939        2.81400143104946        2.26224581106137
C           -2.05467525374376        2.21581158436200        1.26434183246442
C           -2.98341644456962        1.90455348644716        0.13974610888731
C           -3.47220321457860        0.45740913773340        0.23695534244753
C           -4.46651186450040        0.01351237177554       -0.63638583022732
C           -4.93590186126716       -1.28768751479273       -0.58830819503072
O           -5.89826519687869       -1.80006781224504       -1.38251955374131
C           -6.58510896195016       -0.94755943048161       -2.26789835848720
C           -4.38499926948493       -2.19618890981514        0.35529703729193
O           -4.88580304067410       -3.44664375688893        0.31158165224222
C           -4.40114105960869       -4.41090741682117        1.21613281838382
C           -3.40457541329853       -1.74415031298655        1.22200005989257
C           -2.95627844223085       -0.42922409806134        1.16470675891245
C           -2.35434644558504        2.14602828819543       -1.24628242491759
C           -1.37640026946302        1.04538340809215       -1.68761310577486
C           -0.08632662987962        1.06931234742670       -0.96555867791728
N            0.55675687635670       -0.00052028811149       -0.49677364301467
C            1.94227158044472        0.10694400110443       -0.10523990488249
C            2.88617018543693       -0.22917963336657       -1.27751166843986
C            4.31992550357562       -0.07197318092688       -0.85808810256686
C            4.98225626985062        1.13101257067246       -1.03219081681810
C            6.30159028464453        1.27909333693601       -0.63113178763520
C            6.98254530688850        0.22526556174670       -0.04065545302392
O            8.26183090182260        0.25409303632873        0.38209920838523
C            9.01547457854494        1.43091073149643        0.20479509759532
C            6.30852054237735       -1.01166761090641        0.14912622618729
O            7.04424206614583       -1.98363770922399        0.72841814311989
C            6.46913375987738       -3.25202828728506        0.92917678317585
C            4.99116362167568       -1.13646806557165       -0.25959643271007
C            0.00910140147114       -1.33023283548936       -0.61437772901740
C           -4.18353347669659        2.85767687653719        0.47083554517323
C           -4.08296021191701        3.03676896667321        1.99667721882041
C           -4.10724638270737        4.21996507256326       -0.21314930714316
H           -4.87738108873065        0.69825639675389       -1.36024969846601
H           -7.06156390838945       -0.11803513668076       -1.73661080173165
H           -7.35202936657794       -1.56510028955515       -2.73084273914716
H           -5.92181097842880       -0.55423862881082       -3.04498233705769
H           -4.60436991561882       -4.12836020924732        2.25315989003734
H           -4.93910802887344       -5.32705611578773        0.98060804393851
H           -3.32703054055863       -4.57842363387592        1.08593463596997
H           -2.98508123957497       -2.40505889071250        1.96301204696628
H           -2.20131535860412       -0.10761143436060        1.86641053672414
H           -3.15508939537724        2.18804690846122       -1.98325575039536
H           -1.84028882938030        3.10702274667234       -1.24952983752292
H           -1.86245513452235        0.07492226078517       -1.60928849967736
H           -1.16516974280470        1.22252590731683       -2.75111271093218
H           -1.00591616889406        1.99221794122539        1.29973151417684
H            0.42600518272233        2.01440746661705       -0.87722481121577
H            2.13535627128678       -0.57512478693237        0.72611379645072
H            2.14614357999086        1.12516082488091        0.23247721324977
H            2.66361996181320        0.44516917318905       -2.10621692995090
H            2.70305082336502       -1.25300830358330       -1.60618027203037
H            4.47760457282165        1.96382909518347       -1.49814429800499
H            6.79409350378714        2.22428918894752       -0.79001013639768
H            8.58260570701165        2.27146706960291        0.75593261899040
H            9.10401336763760        1.69427444343203       -0.85356577558541
H           10.00273753524404        1.20802422605289        0.60474249020777
H            7.24809459320734       -3.85662652751576        1.38950194737973
H            5.60728030879695       -3.20053114961664        1.60259714186906
H            6.16760960918431       -3.71095371589740       -0.01771441387494
H            4.47345935211501       -2.07426074118039       -0.13147678447056
H           -0.04704295394412       -1.65058124978764       -1.65767666462413
H           -0.99342062750618       -1.36534226784839       -0.18333144649093
H            0.64361560369378       -2.02665206816321       -0.07172027594024
H           -5.12755484088101        2.38269704727275        0.20573427258948
H           -4.70552799176408        2.32319093919542        2.56172006345391
H           -5.91684593378811        1.92666728544129        4.33812678378653
H           -4.37219090215229        4.04110644703972        2.31241770635461
H           -3.18273918802867        4.73422999591693        0.03946251427206
H           -4.17463554816154        4.13229285383085       -1.29316488366721
H           -4.94106941435260        4.83375904517537        0.11862786968011
H           -2.27375128712862        3.02794206289176        3.15639817099627

          :  Hamiltonian                  GFN2-xTB          :
         :: total energy             -99.335110868845 Eh    ::
         :: gradient norm              0.005148356334 Eh/a0 ::
         :: HOMO-LUMO gap              0.670508034327 eV    ::
         :: SCC energy              -100.692243323256 Eh    ::
         :: -> dispersion             -0.074268815379 Eh    ::
         :: repulsion energy           1.356005962187 Eh    ::

    * Orbital Energies and Occupations

         #    Occupation            Energy/Eh            Energy/eV
      -------------------------------------------------------------
         1        2.0000           -0.8057128             -21.9246
       ...           ...                  ...                  ...
        78        1.9994           -0.5359695             -14.5845
        79        1.9994           -0.5346492             -14.5485
        80        1.9993           -0.5332793             -14.5113
        81        1.9990           -0.5269651             -14.3394
        82        1.9989           -0.5261536             -14.3174
        83        1.9987           -0.5228870             -14.2285
        84        1.9983           -0.5192202             -14.1287
        85        1.9977           -0.5142979             -13.9948
        86        1.9895           -0.4902006             -13.3390
        87        1.9827           -0.4821896             -13.1210
        88        1.9250           -0.4584971             -12.4763
        89        1.8758           -0.4500898             -12.2476
        90        1.2458           -0.4150511             -11.2941 (HOMO)
        91        0.5168           -0.3904104             -10.6236 (LUMO)
        92        0.4590           -0.3879260             -10.5560
        93        0.0064           -0.3161236              -8.6022
        94        0.0053           -0.3133326              -8.5262
        95        0.0034           -0.3061634              -8.3311
        96        0.0029           -0.3034872              -8.2583
        97        0.0000           -0.1902985              -5.1783
        98        0.0000           -0.1808512              -4.9212
        99                         -0.1281102              -3.4861
       100                         -0.1120223              -3.0483
       101                         -0.0829527              -2.2573
       ...                                ...                  ...
       171                          0.5840604              15.8931
      -------------------------------------------------------------
                  HL-Gap            0.0246407 Eh            0.6705 eV

     #   Z          covCN         q      C6AA      α(0)
     1   7 N        2.711    -0.058    22.361     7.023
     2   6 C        2.899     0.010    27.796     8.644
     3   6 C        3.929     0.012    20.304     6.404
     4   6 C        2.973    -0.008    28.205     8.711
     5   6 C        2.920    -0.082    30.048     8.989
     6   6 C        2.863     0.130    25.146     8.220
     7   8 O        1.706    -0.231    17.836     5.702
     8   6 C        3.645     0.028    20.441     6.498
     9   6 C        2.864     0.129    25.165     8.223
    10   8 O        1.706    -0.230    17.816     5.699
    11   6 C        3.645     0.027    20.447     6.499
    12   6 C        2.914    -0.075    29.882     8.964
    13   6 C        2.921    -0.057    29.426     8.896
    14   6 C        3.806    -0.068    21.796     6.646
    15   6 C        3.802    -0.069    21.828     6.652
    16   6 C        2.844    -0.011    28.283     8.716
    17   7 N        2.729     0.005    21.168     6.833
    18   6 C        3.756    -0.017    20.925     6.522
    19   6 C        3.808    -0.070    21.833     6.652
    20   6 C        2.969    -0.002    28.076     8.691
    21   6 C        2.922    -0.050    29.244     8.868
    22   6 C        2.914    -0.069    29.710     8.938
    23   6 C        2.865     0.132    25.114     8.214
    24   8 O        1.706    -0.227    17.757     5.689
    25   6 C        3.645     0.026    20.463     6.501
    26   6 C        2.863     0.131    25.120     8.215
    27   8 O        1.706    -0.229    17.798     5.696
    28   6 C        3.645     0.029    20.427     6.496
    29   6 C        2.920    -0.081    30.015     8.984
    30   6 C        3.700    -0.071    22.028     6.712
    31   6 C        3.890    -0.024    20.942     6.506
    32   6 C        3.793    -0.017    20.891     6.509
    33   6 C        3.754    -0.118    22.825     6.812
    34   1 H        0.926     0.050     2.322     2.383
    35   1 H        0.924     0.051     2.309     2.376
    36   1 H        0.925     0.081     1.969     2.194
    37   1 H        0.924     0.047     2.361     2.403
    38   1 H        0.924     0.054     2.268     2.355
    39   1 H        0.925     0.081     1.974     2.197
    40   1 H        0.924     0.046     2.375     2.410
    41   1 H        0.926     0.051     2.309     2.376
    42   1 H        0.926     0.031     2.566     2.505
    43   1 H        0.925     0.063     2.166     2.301
    44   1 H        0.925     0.057     2.240     2.340
    45   1 H        0.925     0.067     2.124     2.279
    46   1 H        0.923     0.078     2.004     2.214
    47   1 H        0.926     0.059     2.216     2.328
    48   1 H        0.926     0.060     2.193     2.316
    49   1 H        0.924     0.065     2.137     2.286
    50   1 H        0.924     0.064     2.149     2.292
    51   1 H        0.924     0.052     2.289     2.366
    52   1 H        0.924     0.054     2.269     2.355
    53   1 H        0.926     0.042     2.417     2.431
    54   1 H        0.926     0.056     2.248     2.345
    55   1 H        0.924     0.052     2.298     2.371
    56   1 H        0.924     0.054     2.274     2.358
    57   1 H        0.925     0.080     1.976     2.198
    58   1 H        0.925     0.080     1.981     2.201
    59   1 H        0.924     0.046     2.368     2.406
    60   1 H        0.924     0.050     2.314     2.379
    61   1 H        0.926     0.045     2.387     2.416
    62   1 H        0.924     0.073     2.053     2.241
    63   1 H        0.924     0.079     1.988     2.205
    64   1 H        0.925     0.077     2.009     2.216
    65   1 H        0.925     0.062     2.171     2.304
    66   1 H        0.923     0.091     1.867     2.137
    67   1 H        0.000    -0.222    31.366    10.241
    68   1 H        0.924     0.080     1.979     2.200
    69   1 H        0.925     0.045     2.385     2.415
    70   1 H        0.925     0.053     2.282     2.362
    71   1 H        0.925     0.059     2.213     2.326
    72   1 H        0.860     0.190     1.159     1.687

Wiberg/Mayer (AO) data.
largest (>0.10) Wiberg bond orders for each atom

     #   Z sym  total        # sym  WBO       # sym  WBO       # sym  WBO
 ---------------------------------------------------------------------------
     1   7 N    3.406 --     2 C    1.414    32 C    0.997    72 H    0.935
     2   6 C    3.509 --     1 N    1.414     3 C    1.025    47 H    0.961
     3   6 C    3.985 --     2 C    1.025    14 C    0.967     4 C    0.949
                            31 C    0.944
     4   6 C    3.936 --    13 C    1.428     5 C    1.366     3 C    0.949
     5   6 C    3.966 --     6 C    1.405     4 C    1.366    34 H    0.959
     6   6 C    3.917 --     5 C    1.405     9 C    1.225     7 O    1.098
     7   8 O    2.262 --     6 C    1.098     8 C    0.978
     8   6 C    3.934 --     7 O    0.978    36 H    0.977    35 H    0.975
                            37 H    0.974
     9   6 C    3.916 --    12 C    1.399     6 C    1.225    10 O    1.101
    10   8 O    2.263 --     9 C    1.101    11 C    0.978
    11   6 C    3.933 --    10 O    0.978    39 H    0.977    40 H    0.975
                            38 H    0.974
    12   6 C    3.968 --     9 C    1.399    13 C    1.394    41 H    0.964
    13   6 C    3.963 --     4 C    1.428    12 C    1.394    42 H    0.962
    14   6 C    3.966 --    15 C    0.985    44 H    0.973    43 H    0.969
                             3 C    0.967
    15   6 C    3.988 --    16 C    1.059    14 C    0.985    45 H    0.961
                            46 H    0.928
    16   6 C    3.504 --    17 N    1.375    15 C    1.059    48 H    0.960
    17   7 N    3.433 --    16 C    1.375    30 C    1.000    18 C    0.990
    18   6 C    3.956 --    17 N    0.990    50 H    0.968    49 H    0.966
                            19 C    0.965
    19   6 C    3.974 --    20 C    1.008    51 H    0.973    52 H    0.971
                            18 C    0.965
    20   6 C    3.951 --    21 C    1.415    29 C    1.376    19 C    1.008
    21   6 C    3.956 --    20 C    1.415    22 C    1.413    53 H    0.968
    22   6 C    3.963 --    21 C    1.413    23 C    1.389    54 H    0.964
    23   6 C    3.902 --    22 C    1.389    26 C    1.224    24 O    1.104
    24   8 O    2.255 --    23 C    1.104    25 C    0.977
    25   6 C    3.931 --    24 O    0.977    57 H    0.977    55 H    0.973
                            56 H    0.973
    26   6 C    3.906 --    29 C    1.400    23 C    1.224    27 O    1.098
    27   8 O    2.254 --    26 C    1.098    28 C    0.980
    28   6 C    3.935 --    27 O    0.980    58 H    0.977    59 H    0.974
                            60 H    0.974
    29   6 C    3.962 --    26 C    1.400    20 C    1.376    61 H    0.963
    30   6 C    3.959 --    17 N    1.000    64 H    0.978    62 H    0.966
                            63 H    0.961
    31   6 C    3.978 --    33 C    1.012    32 C    0.989    65 H    0.965
                             3 C    0.944
    32   6 C    3.937 --     1 N    0.997    31 C    0.989    68 H    0.960
                            66 H    0.930
    33   6 C    3.990 --    31 C    1.012    69 H    0.985    70 H    0.981
                            71 H    0.980
    34   1 H    0.996 --     5 C    0.959
    35   1 H    0.995 --     8 C    0.975
    36   1 H    0.993 --     8 C    0.977
    37   1 H    0.995 --     8 C    0.974
    38   1 H    0.994 --    11 C    0.974
    39   1 H    0.993 --    11 C    0.977
    40   1 H    0.995 --    11 C    0.975
    41   1 H    0.996 --    12 C    0.964
    42   1 H    0.999 --    13 C    0.962
    43   1 H    0.994 --    14 C    0.969
    44   1 H    0.996 --    14 C    0.973
    45   1 H    0.994 --    15 C    0.961
    46   1 H    0.964 --    15 C    0.928
    47   1 H    0.996 --     2 C    0.961
    48   1 H    0.996 --    16 C    0.960
    49   1 H    0.992 --    18 C    0.966
    50   1 H    0.994 --    18 C    0.968
    51   1 H    0.996 --    19 C    0.973
    52   1 H    0.996 --    19 C    0.971
    53   1 H    0.998 --    21 C    0.968
    54   1 H    0.995 --    22 C    0.964
    55   1 H    0.993 --    25 C    0.973
    56   1 H    0.993 --    25 C    0.973
    57   1 H    0.993 --    25 C    0.977
    58   1 H    0.993 --    28 C    0.977
    59   1 H    0.994 --    28 C    0.974
    60   1 H    0.994 --    28 C    0.974
    61   1 H    0.997 --    29 C    0.963
    62   1 H    0.983 --    30 C    0.966
    63   1 H    0.987 --    30 C    0.961
    64   1 H    0.994 --    30 C    0.978
    65   1 H    0.996 --    31 C    0.965
    66   1 H    0.979 --    32 C    0.930
    67   1 H    0.033
    68   1 H    0.988 --    32 C    0.960
    69   1 H    0.998 --    33 C    0.985
    70   1 H    0.996 --    33 C    0.981
    71   1 H    0.995 --    33 C    0.980
    72   1 H    0.963 --     1 N    0.935
 ---------------------------------------------------------------------------

molecular dipole:
                 x           y           z       tot (Debye)
 q only:        0.817       1.060      -1.058
   full:        0.878       1.235      -0.850       4.416

           -------------------------------------------------
          | TOTAL ENERGY              -99.335110868845 Eh   |
          | GRADIENT NORM               0.005148356334 Eh/α |
          | HOMO-LUMO GAP               0.670508034327 eV   |
           -------------------------------------------------

 * finished run on 2024/04/06 at 11:12:08.966
