   * xtb version 6.6.1 (8d0f1dd) compiled by 'conda@1efc2f54142f' on 2023-08-01
          program call               : xtb struc.xyz --opt loose --input .xc1 --gfn2

   ID    Z sym.   atoms
    1    7 N      1, 17
    2    6 C      2-6, 8, 9, 11-16, 18-23, 25, 26, 28-33
    3    8 O      7, 10, 24, 27
    4    1 H      34-72
constraining bond 5 67 to    5.7133300 Å, actual value:    3.0270344 Å

          :  Hamiltonian                  GFN2-xTB          :
 * total energy  :  -100.6926037 Eh     change       -0.4035485E-08 Eh
 * total energy  :  -101.4121958 Eh     change       -0.7195921E+00 Eh
 * total energy  :  -102.2240771 Eh     change       -0.8118813E+00 Eh
 * total energy  :  -103.1793730 Eh     change       -0.9552958E+00 Eh
 * total energy  :   -97.1852222 Eh     change        0.5994151E+01 Eh
 * total energy  :  -103.3184909 Eh     change       -0.6133269E+01 Eh
 * total energy  :  -103.4057397 Eh     change       -0.8724875E-01 Eh
 * total energy  :  -103.4444588 Eh     change       -0.3871914E-01 Eh
 * total energy  :  -103.4947255 Eh     change       -0.5026669E-01 Eh
 * total energy  :  -103.5063280 Eh     change       -0.1160253E-01 Eh
 * total energy  :  -103.6348119 Eh     change       -0.2179522E-03 Eh
 * total energy  :  -103.6349215 Eh     change       -0.1095992E-03 Eh
 * total energy  :  -103.6350818 Eh     change       -0.1602597E-03 Eh
 * total energy  :  -103.6352058 Eh     change       -0.1239976E-03 Eh
 * total energy  :  -103.6352612 Eh     change       -0.5540991E-04 Eh
 * total energy  :  -103.6353355 Eh     change       -0.7431429E-04 Eh
 * total energy  :  -103.6353936 Eh     change       -0.5812136E-04 Eh
 * total energy  :  -103.6354332 Eh     change       -0.3957124E-04 Eh
 * total energy  :  -103.6354645 Eh     change       -0.3133218E-04 Eh
   *** GEOMETRY OPTIMIZATION CONVERGED AFTER 77 ITERATIONS ***

 final structure:
================
72
 xtb: 6.6.1 (8d0f1dd)
N           -2.48651721443708        2.75163911734937        2.34576333802849
C           -1.93347221555192        2.14274308713776        1.28736938612705
C           -2.94565404917958        1.90165945723225        0.21686064718124
C           -3.47809835691207        0.47420728216233        0.29467223045360
C           -4.66330561218008        0.14722545633938       -0.60087087995599
C           -5.14643966831572       -1.27437023006838       -0.38688799612776
O           -6.24630778792303       -1.71184781032852       -1.04024351512567
C           -6.96980350306988       -0.82684295172208       -1.86004051323365
C           -4.50498219945263       -2.18701151406799        0.43887750342649
O           -5.05338852713309       -3.43015253902303        0.47047625555401
C           -4.49856459111287       -4.39361614883136        1.33272344940801
C           -3.38521540055925       -1.78821487518163        1.17684372564912
C           -2.92135309929990       -0.46538743443848        1.09985795263273
C           -2.38664209572218        2.17603196121790       -1.19714345701443
C           -1.42512216697551        1.08823882810449       -1.70534841357361
C           -0.11321640647464        1.09712441126083       -1.02079834066896
N            0.53817519006846        0.01153700626249       -0.58320698693888
C            1.91771667216656        0.11349848297826       -0.17298971982146
C            2.88734666473768       -0.25312376626991       -1.31435020854406
C            4.31019950232298       -0.06763011190591       -0.86913226715740
C            4.96512491554542        1.13347441996761       -1.07345981232148
C            6.27311340828756        1.31056114739278       -0.64592960175648
C            6.94816826660849        0.28797177013407        0.00121968884534
O            8.21902614507580        0.34735256000897        0.45489456984794
C            8.95997912232244        1.52710376455529        0.25090554174228
C            6.28226667862079       -0.94612636075868        0.22192546469171
O            7.01472607042735       -1.88881060621148        0.85782816524512
C            6.44852595076886       -3.15578283458122        1.08590214445832
C            4.97714974735091       -1.10105282082712       -0.21293974793077
C            0.00332861830182       -1.31755642136953       -0.74853917201886
C           -4.06908745736533        2.90446328238271        0.65031359800422
C           -3.90651230892442        2.92933909231645        2.17886892105884
C           -3.89754073406519        4.31096686736126        0.08430421931078
H           -4.27153491428381        0.15817540326190       -1.65126142707107
H           -7.37272120215819        0.01697333080604       -1.29072195090167
H           -7.79562276170524       -1.41031721526435       -2.26239958629562
H           -6.36234496692675       -0.44880251850088       -2.68843661412148
H           -4.53307878778437       -4.06870080790635        2.37726342389070
H           -5.11691446633232       -5.28097851189380        1.21204355845147
H           -3.46615356725831       -4.63409773950739        1.05822412130899
H           -2.88537162731584       -2.47834107826708        1.83264387345381
H           -2.08227385659474       -0.19286433970036        1.72539491412672
H           -3.22248962136798        2.24618126653969       -1.89343145890428
H           -1.86732519602379        3.13335431705806       -1.19916685658976
H           -1.89672089841947        0.11080296754400       -1.62895895622758
H           -1.25576279266530        1.29089991464216       -2.77201066813099
H           -0.88580322566272        1.92851270591133        1.23390068992941
H            0.40263888909037        2.03847833111588       -0.92470938869991
H            2.08853109429181       -0.55351443511409        0.67633190174888
H            2.12344287981608        1.13623595184916        0.14913486786515
H            2.67669585751137        0.39217777912632       -2.16888364040665
H            2.72024253617913       -1.28864547510685       -1.61341454133961
H            4.46427944522888        1.94269637120430       -1.58325117993738
H            6.76019767105395        2.25407045354983       -0.82987682877885
H            8.50020584429482        2.38276730064879        0.75545035277105
H            9.07466186514621        1.74979595512709       -0.81445357444585
H            9.93890861537240        1.33593472198519        0.68634329937053
H            7.22313429807076       -3.73672632074190        1.58289739749029
H            5.57075216094439       -3.09333311909182        1.73784256761356
H            6.17335336318999       -3.64867324693481        0.14791103773302
H            4.46501829925415       -2.03822783889000       -0.05948363872988
H           -0.03122578995703       -1.60823674436098       -1.80190832171198
H           -1.00514556623839       -1.37609678313017       -0.33540012003970
H            0.63484184934247       -2.02382822743789       -0.21504512719314
H           -5.05889389486939        2.54100962787790        0.37706574128082
H           -4.45799723519220        2.10492858710861        2.65244543032590
H           -5.19241945768927        0.61584096743682       -0.52585125999691
H           -4.23295148364232        3.87228623427926        2.62086473918682
H           -2.92034975366877        4.71628296168005        0.33319374094406
H           -4.01951829894862        4.32067521769601       -0.99427606777874
H           -4.65678786981469        4.96473497738618        0.50747998344797
H           -2.03460539521545        2.84509701192990        3.24004823948939

          :  Hamiltonian                  GFN2-xTB          :
         :: total energy            -103.635464545353 Eh    ::
         :: gradient norm              0.003683864350 Eh/a0 ::
         :: HOMO-LUMO gap              0.270906393109 eV    ::
         :: SCC energy              -100.745852637122 Eh    ::
         :: -> dispersion             -0.074089679463 Eh    ::
         :: repulsion energy           1.577728427141 Eh    ::

    * Orbital Energies and Occupations

         #    Occupation            Energy/Eh            Energy/eV
      -------------------------------------------------------------
         1        2.0000           -0.8087665             -22.0077
       ...           ...                  ...                  ...
        78        1.9997           -0.5301225             -14.4254
        79        1.9997           -0.5293408             -14.4041
        80        1.9996           -0.5241416             -14.2626
        81        1.9994           -0.5192001             -14.1282
        82        1.9994           -0.5175078             -14.0821
        83        1.9993           -0.5158043             -14.0357
        84        1.9993           -0.5152307             -14.0201
        85        1.9991           -0.5117955             -13.9267
        86        1.9985           -0.5032686             -13.6946
        87        1.9879           -0.4706117             -12.8060
        88        1.9716           -0.4569529             -12.4343
        89        1.9143           -0.4389796             -11.9452
        90        0.9305           -0.3875881             -10.5468 (HOMO)
        91        0.6338           -0.3776325             -10.2759 (LUMO)
        92        0.5527           -0.3745511             -10.1921
        93        0.0077           -0.3018582              -8.2140
        94        0.0049           -0.2945147              -8.0142
        95        0.0040           -0.2915718              -7.9341
        96        0.0000           -0.2137852              -5.8174
        97        0.0000           -0.1688757              -4.5953
        98                         -0.1151721              -3.1340
        99                         -0.1034046              -2.8138
       100                         -0.0810051              -2.2043
       101                         -0.0757530              -2.0613
       ...                                ...                  ...
       171                          1.7388525              47.3166
      -------------------------------------------------------------
                  HL-Gap            0.0099556 Eh            0.2709 eV

     #   Z          covCN         q      C6AA      α(0)
     1   7 N        2.711    -0.088    22.962     7.117
     2   6 C        2.904    -0.008    28.227     8.711
     3   6 C        3.930     0.012    20.306     6.404
     4   6 C        2.957    -0.038    28.936     8.823
     5   6 C        3.807    -0.107    22.539     6.758
     6   6 C        2.850     0.104    25.700     8.309
     7   8 O        1.706    -0.219    17.644     5.671
     8   6 C        3.643     0.026    20.479     6.506
     9   6 C        2.849     0.121    25.331     8.249
    10   8 O        1.706    -0.250    18.139     5.750
    11   6 C        3.644     0.032    20.373     6.488
    12   6 C        2.912    -0.094    30.357     9.035
    13   6 C        2.903    -0.053    29.310     8.877
    14   6 C        3.805    -0.069    21.815     6.649
    15   6 C        3.802    -0.067    21.790     6.646
    16   6 C        2.842    -0.019    28.477     8.746
    17   7 N        2.729    -0.004    21.341     6.861
    18   6 C        3.755    -0.014    20.887     6.516
    19   6 C        3.808    -0.070    21.829     6.651
    20   6 C        2.969    -0.004    28.125     8.699
    21   6 C        2.922    -0.052    29.291     8.875
    22   6 C        2.915    -0.070    29.747     8.944
    23   6 C        2.865     0.129    25.167     8.223
    24   8 O        1.706    -0.234    17.871     5.708
    25   6 C        3.645     0.029    20.423     6.495
    26   6 C        2.863     0.129    25.170     8.224
    27   8 O        1.706    -0.236    17.904     5.713
    28   6 C        3.645     0.031    20.391     6.490
    29   6 C        2.920    -0.081    30.038     8.988
    30   6 C        3.699    -0.068    21.982     6.705
    31   6 C        3.894    -0.023    20.924     6.503
    32   6 C        3.799    -0.009    20.742     6.484
    33   6 C        3.754    -0.117    22.807     6.810
    34   1 H        0.920     0.060     2.201     2.320
    35   1 H        0.924     0.051     2.301     2.372
    36   1 H        0.925     0.083     1.949     2.183
    37   1 H        0.924     0.051     2.307     2.375
    38   1 H        0.924     0.047     2.353     2.399
    39   1 H        0.925     0.075     2.028     2.227
    40   1 H        0.924     0.044     2.402     2.423
    41   1 H        0.926     0.043     2.407     2.426
    42   1 H        0.925     0.031     2.577     2.511
    43   1 H        0.925     0.053     2.282     2.362
    44   1 H        0.925     0.055     2.253     2.347
    45   1 H        0.925     0.062     2.180     2.309
    46   1 H        0.923     0.069     2.096     2.264
    47   1 H        0.926     0.052     2.293     2.368
    48   1 H        0.926     0.055     2.261     2.351
    49   1 H        0.924     0.061     2.187     2.312
    50   1 H        0.924     0.062     2.181     2.310
    51   1 H        0.924     0.051     2.311     2.377
    52   1 H        0.924     0.052     2.299     2.371
    53   1 H        0.926     0.039     2.459     2.452
    54   1 H        0.926     0.052     2.294     2.368
    55   1 H        0.924     0.048     2.340     2.392
    56   1 H        0.924     0.051     2.313     2.379
    57   1 H        0.925     0.077     2.013     2.218
    58   1 H        0.925     0.076     2.016     2.220
    59   1 H        0.924     0.043     2.406     2.426
    60   1 H        0.924     0.048     2.350     2.397
    61   1 H        0.926     0.042     2.427     2.436
    62   1 H        0.924     0.068     2.103     2.268
    63   1 H        0.924     0.078     2.005     2.214
    64   1 H        0.925     0.074     2.047     2.237
    65   1 H        0.925     0.049     2.335     2.390
    66   1 H        0.923     0.058     2.217     2.328
    67   1 H        0.931     0.124     1.580     1.965
    68   1 H        0.924     0.069     2.101     2.267
    69   1 H        0.925     0.047     2.356     2.400
    70   1 H        0.925     0.052     2.294     2.368
    71   1 H        0.925     0.053     2.278     2.360
    72   1 H        0.860     0.177     1.229     1.736

Wiberg/Mayer (AO) data.
largest (>0.10) Wiberg bond orders for each atom

     #   Z sym  total        # sym  WBO       # sym  WBO       # sym  WBO
 ---------------------------------------------------------------------------
     1   7 N    3.322 --     2 C    1.333    32 C    0.998    72 H    0.940
     2   6 C    3.406 --     1 N    1.333     3 C    1.022    47 H    0.961
     3   6 C    3.986 --     2 C    1.022    14 C    0.963     4 C    0.963
                            31 C    0.942
     4   6 C    3.725 --    13 C    1.604     5 C    1.007     3 C    0.963
     5   6 C    3.967 --     6 C    1.008     4 C    1.007    67 H    0.947
                            34 H    0.910
     6   6 C    3.639 --     9 C    1.366     7 O    1.110     5 C    1.008
     7   8 O    2.227 --     6 C    1.110     8 C    0.980
     8   6 C    3.932 --     7 O    0.980    36 H    0.977    35 H    0.972
                            37 H    0.971
     9   6 C    3.902 --     6 C    1.366    12 C    1.308    10 O    1.069
    10   8 O    2.227 --     9 C    1.069    11 C    0.982
    11   6 C    3.938 --    10 O    0.982    39 H    0.977    40 H    0.975
                            38 H    0.975
    12   6 C    3.706 --     9 C    1.308    13 C    1.296    41 H    0.967
    13   6 C    3.976 --     4 C    1.604    12 C    1.296    42 H    0.957
    14   6 C    3.957 --    15 C    0.986    44 H    0.973    43 H    0.971
                             3 C    0.963
    15   6 C    3.990 --    16 C    1.056    14 C    0.986    45 H    0.962
                            46 H    0.934
    16   6 C    3.465 --    17 N    1.345    15 C    1.056    48 H    0.961
    17   7 N    3.405 --    16 C    1.345    30 C    1.002    18 C    0.992
    18   6 C    3.960 --    17 N    0.992    50 H    0.969    19 C    0.966
                            49 H    0.966
    19   6 C    3.975 --    20 C    1.008    51 H    0.973    52 H    0.972
                            18 C    0.966
    20   6 C    3.959 --    21 C    1.422    29 C    1.373    19 C    1.008
    21   6 C    3.963 --    20 C    1.422    22 C    1.409    53 H    0.969
    22   6 C    3.969 --    21 C    1.409    23 C    1.395    54 H    0.964
    23   6 C    3.911 --    22 C    1.395    26 C    1.232    24 O    1.095
    24   8 O    2.253 --    23 C    1.095    25 C    0.979
    25   6 C    3.935 --    24 O    0.979    57 H    0.978    55 H    0.974
                            56 H    0.974
    26   6 C    3.914 --    29 C    1.405    23 C    1.232    27 O    1.089
    27   8 O    2.252 --    26 C    1.089    28 C    0.982
    28   6 C    3.938 --    27 O    0.982    58 H    0.978    59 H    0.975
                            60 H    0.975
    29   6 C    3.966 --    26 C    1.405    20 C    1.373    61 H    0.963
    30   6 C    3.962 --    17 N    1.002    64 H    0.978    62 H    0.967
                            63 H    0.962
    31   6 C    3.973 --    33 C    1.012    32 C    0.990    65 H    0.967
                             3 C    0.942
    32   6 C    3.962 --     1 N    0.998    31 C    0.990    68 H    0.967
                            66 H    0.957
    33   6 C    3.991 --    31 C    1.012    69 H    0.985    70 H    0.982
                            71 H    0.981
    34   1 H    0.945 --     5 C    0.910
    35   1 H    0.991 --     8 C    0.972
    36   1 H    0.993 --     8 C    0.977
    37   1 H    0.991 --     8 C    0.971
    38   1 H    0.996 --    11 C    0.975
    39   1 H    0.994 --    11 C    0.977
    40   1 H    0.996 --    11 C    0.975
    41   1 H    0.997 --    12 C    0.967
    42   1 H    0.999 --    13 C    0.957
    43   1 H    0.995 --    14 C    0.971
    44   1 H    0.996 --    14 C    0.973
    45   1 H    0.995 --    15 C    0.962
    46   1 H    0.965 --    15 C    0.934
    47   1 H    0.997 --     2 C    0.961
    48   1 H    0.997 --    16 C    0.961
    49   1 H    0.992 --    18 C    0.966
    50   1 H    0.995 --    18 C    0.969
    51   1 H    0.997 --    19 C    0.973
    52   1 H    0.996 --    19 C    0.972
    53   1 H    0.998 --    21 C    0.969
    54   1 H    0.996 --    22 C    0.964
    55   1 H    0.995 --    25 C    0.974
    56   1 H    0.994 --    25 C    0.974
    57   1 H    0.994 --    25 C    0.978
    58   1 H    0.994 --    28 C    0.978
    59   1 H    0.996 --    28 C    0.975
    60   1 H    0.995 --    28 C    0.975
    61   1 H    0.997 --    29 C    0.963
    62   1 H    0.983 --    30 C    0.967
    63   1 H    0.987 --    30 C    0.962
    64   1 H    0.994 --    30 C    0.978
    65   1 H    0.997 --    31 C    0.967
    66   1 H    0.982 --    32 C    0.957
    67   1 H    0.973 --     5 C    0.947
    68   1 H    0.991 --    32 C    0.967
    69   1 H    0.998 --    33 C    0.985
    70   1 H    0.997 --    33 C    0.982
    71   1 H    0.996 --    33 C    0.981
    72   1 H    0.966 --     1 N    0.940
 ---------------------------------------------------------------------------

molecular dipole:
                 x           y           z       tot (Debye)
 q only:       -1.694       1.589       0.240
   full:       -1.647       1.709       0.357       6.101

           -------------------------------------------------
          | TOTAL ENERGY             -103.635464545353 Eh   |
          | GRADIENT NORM               0.003683864350 Eh/α |
          | HOMO-LUMO GAP               0.270906393109 eV   |
           -------------------------------------------------

 * finished run on 2024/04/06 at 11:16:04.350
