   * xtb version 6.6.1 (8d0f1dd) compiled by 'conda@1efc2f54142f' on 2023-08-01
          program call               : xtb xtbopt.xyz --opt crude --input .xc2 --gfn2

   ID    Z sym.   atoms
    1    7 N      1, 17
    2    6 C      2-6, 8, 9, 11-16, 18-23, 25, 26, 28-33
    3    8 O      7, 10, 24, 27
    4    1 H      34-72
########################################################################
[WARNING] Please study the warnings concerning your input carefully
-1- readin_getIntValue: could not parse ''
########################################################################

          :  Hamiltonian                  GFN2-xTB          :
 * total energy  :   -99.1670572 Eh     change       -0.2422951E-10 Eh
 * total energy  :   -99.3801002 Eh     change       -0.2130430E+00 Eh
 * total energy  :   -99.3821478 Eh     change       -0.2047674E-02 Eh
 * total energy  :   -99.3830516 Eh     change       -0.9038198E-03 Eh
 * total energy  :   -99.3833327 Eh     change       -0.2810959E-03 Eh
 * total energy  :   -99.3834939 Eh     change       -0.1611990E-03 Eh
   *** GEOMETRY OPTIMIZATION CONVERGED AFTER 6 ITERATIONS ***

 final structure:
================
72
 xtb: 6.6.1 (8d0f1dd)
N           -2.46629122853757        2.73706236029970        2.34481221152837
C           -1.92236964483812        2.12963683352922        1.28068405022745
C           -2.94052621070200        1.89517181804702        0.21443064503965
C           -3.47532196508035        0.46734531026712        0.28540898463030
C           -4.62068221922436        0.10140104236904       -0.61496379134624
C           -5.12919010769826       -1.29028953598146       -0.40919535811608
O           -6.22649261110923       -1.73244519051975       -1.06374675963243
C           -6.95952395587776       -0.85884001790593       -1.88530458022175
C           -4.50098096391698       -2.19623634323204        0.43711781139426
O           -5.05162883202942       -3.43808512339710        0.47748160450618
C           -4.49930721583370       -4.39684145846377        1.34708925061034
C           -3.39027949054190       -1.79004491839557        1.18398679899287
C           -2.93046092173235       -0.46589672189754        1.10875408207333
C           -2.38188170887121        2.17733708374896       -1.19852749109817
C           -1.42301806568168        1.08990364055250       -1.71403881603171
C           -0.10760736221950        1.09896229640575       -1.03635563430451
N            0.53931890656771        0.01590167785406       -0.58560794021647
C            1.91963282474773        0.11848760593005       -0.17802216754922
C            2.88847716542612       -0.25344482601657       -1.31834743927788
C            4.31091250883729       -0.06731687558383       -0.87222330454522
C            4.96489223628026        1.13487596790162       -1.07336577949006
C            6.27185802146327        1.31257169930665       -0.64296609554645
C            6.94682017284777        0.28980364904214        0.00416480177765
O            8.21690028826493        0.35022102147224        0.46005047542764
C            8.95860339844887        1.52909879126609        0.25353310551394
C            6.28161513914007       -0.94506390160783        0.22228650293816
O            7.01273480043605       -1.88804267681324        0.85942782456378
C            6.44575044355675       -3.15518955823739        1.08461057291169
C            4.97764040495348       -1.10068655846345       -0.21585870551723
C            0.00064726742687       -1.31327085057013       -0.73914096788229
C           -4.05441159459495        2.90424834355742        0.65779467090905
C           -3.88625924334126        2.92370455394653        2.18465567411338
C           -3.88324468040356        4.31104425494885        0.09374342316577
H           -4.31149492518000        0.20532663425825       -1.66998948941855
H           -7.37900360824247       -0.02259595326214       -1.31589346528470
H           -7.77575188172721       -1.45401280682098       -2.29055452334058
H           -6.35531894046352       -0.46710369456510       -2.70944333275834
H           -4.54029346728798       -4.06774721999677        2.39014110274505
H           -5.11533049332572       -5.28592414116004        1.22706203677060
H           -3.46494467280137       -4.63667560831678        1.07975928179854
H           -2.89641537829072       -2.47585500798347        1.84933713473014
H           -2.10301627968209       -0.18830777856390        1.74716191991062
H           -3.21798858947269        2.25470642068937       -1.89357029654373
H           -1.85872315920198        3.13292546583498       -1.19380538871065
H           -1.89504621347434        0.11283239838877       -1.63614456737506
H           -1.25916111072417        1.29493574139240       -2.78108896290141
H           -0.87832272630286        1.89717939904120        1.22963467606623
H            0.41084459327024        2.03964678832881       -0.94695866833770
H            2.09096700877381       -0.54509365252332        0.67387954173034
H            2.12655811139242        1.14243387560849        0.13971223215266
H            2.67861582984977        0.38869356278440       -2.17547209970997
H            2.72061369125527       -1.29004030290035       -1.61334696460504
H            4.46417876115595        1.94444925528364       -1.58272290513170
H            6.75825753826370        2.25702333691151       -0.82417497166928
H            8.50133133853758        2.38553894564566        0.75912393045248
H            9.07044002711364        1.75128265548360       -0.81225775997197
H            9.93860317169896        1.33700824046897        0.68621219685120
H            7.21923884302154       -3.73729691830555        1.58190593794825
H            5.56694934838965       -3.09334412987023        1.73525875087692
H            6.17179504200974       -3.64645027344766        0.14543721163045
H            4.46600994347532       -2.03848868340316       -0.06482656366964
H           -0.04122378844244       -1.61065231714346       -1.79036902532636
H           -1.00535185537874       -1.36682785318943       -0.31896097915065
H            0.63427519880447       -2.01730793361825       -0.20523239801831
H           -5.04684901531298        2.54596501941687        0.38969559831295
H           -4.43888064763987        2.10073583941375        2.65527319463512
H           -5.44860231339885        0.81239113765468       -0.48803839564164
H           -4.20764944367934        3.86524979000726        2.63153963839675
H           -2.90755435406821        4.71733944760129        0.34735792902127
H           -4.00032853179640        4.32281641178041       -0.98553779764005
H           -4.64517699021916        4.96261740484744        0.51524411975106
H           -2.00606002005895        2.84168263336407        3.23354930447959

          :  Hamiltonian                  GFN2-xTB          :
         :: total energy             -99.383493944223 Eh    ::
         :: gradient norm              0.003138934194 Eh/a0 ::
         :: HOMO-LUMO gap              0.271162630975 eV    ::
         :: SCC energy              -100.720715020131 Eh    ::
         :: -> dispersion             -0.074081664531 Eh    ::
         :: repulsion energy           1.336146076313 Eh    ::

    * Orbital Energies and Occupations

         #    Occupation            Energy/Eh            Energy/eV
      -------------------------------------------------------------
         1        2.0000           -0.8079596             -21.9857
       ...           ...                  ...                  ...
        78        1.9997           -0.5300141             -14.4224
        79        1.9997           -0.5293336             -14.4039
        80        1.9996           -0.5241105             -14.2618
        81        1.9994           -0.5192629             -14.1299
        82        1.9994           -0.5169937             -14.0681
        83        1.9993           -0.5155383             -14.0285
        84        1.9993           -0.5150694             -14.0158
        85        1.9991           -0.5117641             -13.9258
        86        1.9985           -0.5032440             -13.6940
        87        1.9880           -0.4705888             -12.8054
        88        1.9709           -0.4564490             -12.4206
        89        1.9146           -0.4389573             -11.9446
        90        0.9314           -0.3875426             -10.5456 (HOMO)
        91        0.6344           -0.3775775             -10.2744 (LUMO)
        92        0.5519           -0.3744435             -10.1891
        93        0.0076           -0.3015929              -8.2068
        94        0.0049           -0.2944845              -8.0133
        95        0.0041           -0.2915498              -7.9335
        96        0.0000           -0.2148921              -5.8475
        97        0.0000           -0.1688559              -4.5948
        98                         -0.1150915              -3.1318
        99                         -0.1041118              -2.8330
       100                         -0.0789985              -2.1497
       101                         -0.0704924              -1.9182
       ...                                ...                  ...
       171                          0.5961104              16.2210
      -------------------------------------------------------------
                  HL-Gap            0.0099650 Eh            0.2712 eV

     #   Z          covCN         q      C6AA      α(0)
     1   7 N        2.711    -0.088    22.962     7.117
     2   6 C        2.905    -0.008    28.214     8.710
     3   6 C        3.929     0.012    20.308     6.404
     4   6 C        2.957    -0.032    28.808     8.803
     5   6 C        3.809    -0.070    21.836     6.652
     6   6 C        2.850     0.109    25.587     8.290
     7   8 O        1.706    -0.218    17.615     5.667
     8   6 C        3.642     0.027    20.469     6.505
     9   6 C        2.850     0.122    25.317     8.247
    10   8 O        1.706    -0.249    18.127     5.748
    11   6 C        3.644     0.032    20.376     6.488
    12   6 C        2.912    -0.093    30.345     9.033
    13   6 C        2.905    -0.052    29.298     8.875
    14   6 C        3.805    -0.069    21.810     6.648
    15   6 C        3.802    -0.067    21.786     6.645
    16   6 C        2.842    -0.019    28.474     8.745
    17   7 N        2.728    -0.005    21.351     6.863
    18   6 C        3.756    -0.014    20.885     6.516
    19   6 C        3.808    -0.070    21.828     6.651
    20   6 C        2.969    -0.004    28.125     8.699
    21   6 C        2.922    -0.052    29.292     8.875
    22   6 C        2.915    -0.070    29.746     8.944
    23   6 C        2.865     0.129    25.168     8.223
    24   8 O        1.706    -0.234    17.873     5.708
    25   6 C        3.645     0.029    20.423     6.495
    26   6 C        2.863     0.129    25.171     8.224
    27   8 O        1.706    -0.236    17.905     5.713
    28   6 C        3.645     0.031    20.390     6.490
    29   6 C        2.920    -0.081    30.038     8.988
    30   6 C        3.699    -0.068    21.974     6.704
    31   6 C        3.896    -0.022    20.910     6.500
    32   6 C        3.800    -0.009    20.745     6.485
    33   6 C        3.754    -0.117    22.805     6.810
    34   1 H        0.923     0.064     2.151     2.294
    35   1 H        0.924     0.052     2.298     2.371
    36   1 H        0.925     0.084     1.939     2.178
    37   1 H        0.924     0.051     2.309     2.376
    38   1 H        0.924     0.047     2.352     2.398
    39   1 H        0.925     0.075     2.026     2.226
    40   1 H        0.924     0.044     2.400     2.423
    41   1 H        0.926     0.043     2.404     2.425
    42   1 H        0.925     0.031     2.570     2.507
    43   1 H        0.925     0.053     2.286     2.364
    44   1 H        0.925     0.056     2.249     2.345
    45   1 H        0.925     0.062     2.179     2.308
    46   1 H        0.923     0.069     2.096     2.264
    47   1 H        0.926     0.052     2.291     2.367
    48   1 H        0.926     0.055     2.261     2.351
    49   1 H        0.924     0.061     2.188     2.313
    50   1 H        0.924     0.061     2.182     2.310
    51   1 H        0.924     0.051     2.311     2.377
    52   1 H        0.924     0.052     2.300     2.372
    53   1 H        0.926     0.039     2.459     2.452
    54   1 H        0.926     0.052     2.294     2.368
    55   1 H        0.924     0.048     2.341     2.392
    56   1 H        0.924     0.051     2.314     2.379
    57   1 H        0.925     0.077     2.013     2.219
    58   1 H        0.925     0.076     2.016     2.221
    59   1 H        0.924     0.043     2.406     2.426
    60   1 H        0.924     0.048     2.350     2.397
    61   1 H        0.926     0.042     2.427     2.436
    62   1 H        0.924     0.068     2.104     2.269
    63   1 H        0.924     0.077     2.008     2.216
    64   1 H        0.925     0.073     2.048     2.238
    65   1 H        0.925     0.049     2.334     2.389
    66   1 H        0.924     0.059     2.210     2.325
    67   1 H        0.923     0.063     2.162     2.299
    68   1 H        0.924     0.069     2.098     2.265
    69   1 H        0.925     0.047     2.356     2.401
    70   1 H        0.925     0.052     2.293     2.368
    71   1 H        0.925     0.054     2.275     2.359
    72   1 H        0.860     0.178     1.227     1.735

Wiberg/Mayer (AO) data.
largest (>0.10) Wiberg bond orders for each atom

     #   Z sym  total        # sym  WBO       # sym  WBO       # sym  WBO
 ---------------------------------------------------------------------------
     1   7 N    3.322 --     2 C    1.334    32 C    0.998    72 H    0.940
     2   6 C    3.407 --     1 N    1.334     3 C    1.023    47 H    0.962
     3   6 C    3.986 --     2 C    1.023    14 C    0.963     4 C    0.962
                            31 C    0.941
     4   6 C    3.728 --    13 C    1.596     5 C    1.020     3 C    0.962
     5   6 C    3.984 --     6 C    1.024     4 C    1.020    67 H    0.924
                            34 H    0.920
     6   6 C    3.646 --     9 C    1.360     7 O    1.110     5 C    1.024
     7   8 O    2.228 --     6 C    1.110     8 C    0.982
     8   6 C    3.931 --     7 O    0.982    36 H    0.976    37 H    0.971
                            35 H    0.969
     9   6 C    3.902 --     6 C    1.360    12 C    1.311    10 O    1.070
    10   8 O    2.228 --     9 C    1.070    11 C    0.982
    11   6 C    3.938 --    10 O    0.982    39 H    0.977    40 H    0.975
                            38 H    0.975
    12   6 C    3.712 --     9 C    1.311    13 C    1.299    41 H    0.967
    13   6 C    3.975 --     4 C    1.596    12 C    1.299    42 H    0.958
    14   6 C    3.956 --    15 C    0.985    44 H    0.973    43 H    0.971
                             3 C    0.963
    15   6 C    3.990 --    16 C    1.057    14 C    0.985    45 H    0.962
                            46 H    0.934
    16   6 C    3.465 --    17 N    1.344    15 C    1.057    48 H    0.961
    17   7 N    3.404 --    16 C    1.344    30 C    1.002    18 C    0.992
    18   6 C    3.960 --    17 N    0.992    50 H    0.969    19 C    0.966
                            49 H    0.966
    19   6 C    3.975 --    20 C    1.008    51 H    0.973    52 H    0.972
                            18 C    0.966
    20   6 C    3.959 --    21 C    1.422    29 C    1.373    19 C    1.008
    21   6 C    3.963 --    20 C    1.422    22 C    1.409    53 H    0.969
    22   6 C    3.969 --    21 C    1.409    23 C    1.395    54 H    0.964
    23   6 C    3.911 --    22 C    1.395    26 C    1.233    24 O    1.095
    24   8 O    2.253 --    23 C    1.095    25 C    0.979
    25   6 C    3.935 --    24 O    0.979    57 H    0.978    55 H    0.974
                            56 H    0.974
    26   6 C    3.914 --    29 C    1.405    23 C    1.233    27 O    1.089
    27   8 O    2.252 --    26 C    1.089    28 C    0.982
    28   6 C    3.938 --    27 O    0.982    58 H    0.978    59 H    0.975
                            60 H    0.975
    29   6 C    3.966 --    26 C    1.405    20 C    1.373    61 H    0.963
    30   6 C    3.962 --    17 N    1.002    64 H    0.978    62 H    0.967
                            63 H    0.962
    31   6 C    3.972 --    33 C    1.012    32 C    0.990    65 H    0.961
                             3 C    0.941
    32   6 C    3.962 --     1 N    0.998    31 C    0.990    68 H    0.967
                            66 H    0.957
    33   6 C    3.991 --    31 C    1.012    69 H    0.985    70 H    0.982
                            71 H    0.981
    34   1 H    0.951 --     5 C    0.920
    35   1 H    0.990 --     8 C    0.969
    36   1 H    0.992 --     8 C    0.976
    37   1 H    0.991 --     8 C    0.971
    38   1 H    0.996 --    11 C    0.975
    39   1 H    0.994 --    11 C    0.977
    40   1 H    0.996 --    11 C    0.975
    41   1 H    0.997 --    12 C    0.967
    42   1 H    0.999 --    13 C    0.958
    43   1 H    0.995 --    14 C    0.971
    44   1 H    0.996 --    14 C    0.973
    45   1 H    0.995 --    15 C    0.962
    46   1 H    0.965 --    15 C    0.934
    47   1 H    0.997 --     2 C    0.962
    48   1 H    0.997 --    16 C    0.961
    49   1 H    0.992 --    18 C    0.966
    50   1 H    0.995 --    18 C    0.969
    51   1 H    0.997 --    19 C    0.973
    52   1 H    0.996 --    19 C    0.972
    53   1 H    0.998 --    21 C    0.969
    54   1 H    0.996 --    22 C    0.964
    55   1 H    0.995 --    25 C    0.974
    56   1 H    0.994 --    25 C    0.974
    57   1 H    0.994 --    25 C    0.978
    58   1 H    0.994 --    28 C    0.978
    59   1 H    0.996 --    28 C    0.975
    60   1 H    0.995 --    28 C    0.975
    61   1 H    0.997 --    29 C    0.963
    62   1 H    0.983 --    30 C    0.967
    63   1 H    0.987 --    30 C    0.962
    64   1 H    0.994 --    30 C    0.978
    65   1 H    0.997 --    31 C    0.961
    66   1 H    0.982 --    32 C    0.957
    67   1 H    0.962 --     5 C    0.924
    68   1 H    0.991 --    32 C    0.967
    69   1 H    0.998 --    33 C    0.985
    70   1 H    0.997 --    33 C    0.982
    71   1 H    0.996 --    33 C    0.981
    72   1 H    0.966 --     1 N    0.940
 ---------------------------------------------------------------------------

molecular dipole:
                 x           y           z       tot (Debye)
 q only:       -1.665       1.547       0.250
   full:       -1.651       1.700       0.356       6.091

           -------------------------------------------------
          | TOTAL ENERGY              -99.383493944223 Eh   |
          | GRADIENT NORM               0.003138934194 Eh/α |
          | HOMO-LUMO GAP               0.271162630975 eV   |
           -------------------------------------------------

 * finished run on 2024/04/06 at 11:16:05.663
