   * xtb version 6.6.1 (8d0f1dd) compiled by 'conda@1efc2f54142f' on 2023-08-01
          program call               : xtb xtbopt.xyz --opt crude --input .xc2 --gfn2

   ID    Z sym.   atoms
    1    6 C      1, 3, 5-7, 10, 11, 14
    2    7 N      2, 4, 9, 13
    3    8 O      8, 12
    4    1 H      15-25

          :  Hamiltonian                  GFN2-xTB          :
 * total energy  :   -42.0619310 Eh     change       -0.1468692E-10 Eh
   *** GEOMETRY OPTIMIZATION CONVERGED AFTER 1 ITERATIONS ***

 final structure:
================
25
 xtb: 6.6.1 (8d0f1dd)
C            5.62242911072282        1.08964609477050        0.09801389900920
N            1.91087980410068        0.25463545505481       -0.02857982685135
C            2.27719520774196       -1.02063765790640       -0.03264526258551
N            1.17229006089950       -1.79766106948154       -0.02411822117428
C            0.07477885182628       -0.98214517421258       -0.01646302297098
C            0.54137755110416        0.32146892250917       -0.02025379931350
C           -0.36440569950560        1.46098691729229       -0.01313381755579
O           -0.02426553514837        2.61677303266498       -0.00584850617554
N           -1.69281627566771        1.04145696522794       -0.02040326528591
C           -2.71831177932744        2.07825894009268       -0.03080011267268
C           -2.18145578090413       -0.25200689954706       -0.01372824261019
O           -3.35304576013107       -0.50010970241164       -0.01401440095558
N           -1.22798834933143       -1.30054855694537       -0.00717974573656
C           -1.69563676463765       -2.67286425859941        0.01278930423066
H            6.02047099601087        1.36588767602405        1.06486438770123
H            6.21876033472677        1.28496847915466       -0.78096413282747
H            2.53220131608702        1.05576993600126       -0.02880191143463
H            3.28688050984213       -1.38102443335771       -0.03484547336661
H           -2.21996629095941        3.04436893701737       -0.04013201897811
H           -3.34495602962008        1.96633135689625       -0.91444337133343
H           -3.34738880286305        1.98563654679356        0.85345765246418
H           -1.34679479780347       -3.18261682975596        0.91112604300479
H           -1.36201384759952       -3.20556152631943       -0.87789554175574
H           -2.78473801908165       -2.64451202226592        0.02108017151257
H            1.16695150362316       -2.80826258710832       -0.02590916644604

          :  Hamiltonian                  GFN2-xTB          :
         :: total energy             -42.061931039393 Eh    ::
         :: gradient norm              0.002585499942 Eh/a0 ::
         :: HOMO-LUMO gap              0.928539045601 eV    ::
         :: SCC energy               -42.581704054412 Eh    ::
         :: -> dispersion             -0.020766112193 Eh    ::
         :: repulsion energy           0.519730626553 Eh    ::

    * Orbital Energies and Occupations

         #    Occupation            Energy/Eh            Energy/eV
      -------------------------------------------------------------
         1        2.0000           -0.9190417             -25.0084
       ...           ...                  ...                  ...
        25        2.0000           -0.6638534             -18.0644
        26        2.0000           -0.6627430             -18.0342
        27        1.9999           -0.6530601             -17.7707
        28        1.9998           -0.6299736             -17.1425
        29        1.9997           -0.6242644             -16.9871
        30        1.9995           -0.6184537             -16.8290
        31        1.9981           -0.5963667             -16.2280
        32        1.9979           -0.5948587             -16.1869
        33        1.9935           -0.5766380             -15.6911
        34        1.9826           -0.5609968             -15.2655
        35        1.9789           -0.5579674             -15.1831
        36        1.9775           -0.5569086             -15.1543
        37        1.4724           -0.5022942             -13.6681 (HOMO)
        38        0.4888           -0.4681710             -12.7396 (LUMO)
        39        0.0983           -0.4391426             -11.9497
        40        0.0116           -0.4046454             -11.0110
        41        0.0014           -0.3713555             -10.1051
        42        0.0000           -0.2869761              -7.8090
        43                         -0.2064149              -5.6168
        44                         -0.1961550              -5.3376
        45                         -0.1463030              -3.9811
        46                         -0.1258596              -3.4248
        47                         -0.0786869              -2.1412
        48                         -0.0389842              -1.0608
       ...                                ...                  ...
        67                          0.5631562              15.3243
      -------------------------------------------------------------
                  HL-Gap            0.0341232 Eh            0.9285 eV

     #   Z          covCN         q      C6AA      α(0)
     1   6 C        1.851    -0.157    35.621     9.641
     2   7 N        2.799    -0.004    21.336     6.860
     3   6 C        3.033     0.067    26.463     8.438
     4   7 N        2.801    -0.047    22.153     6.990
     5   6 C        3.042     0.117    25.387     8.264
     6   6 C        3.106    -0.011    28.158     8.694
     7   6 C        2.764     0.272    22.409     7.752
     8   8 O        0.858    -0.354    20.775     6.111
     9   7 N        2.745    -0.083    22.849     7.099
    10   6 C        3.710    -0.063    21.857     6.681
    11   6 C        2.727     0.317    21.606     7.610
    12   8 O        0.859    -0.353    20.764     6.109
    13   7 N        2.738    -0.057    22.340     7.020
    14   6 C        3.696    -0.074    22.088     6.723
    15   1 H        0.925     0.099     1.797     2.096
    16   1 H        0.926     0.100     1.785     2.089
    17   1 H        0.860     0.252     0.875     1.465
    18   1 H        0.926     0.137     1.483     1.904
    19   1 H        0.925     0.114     1.663     2.016
    20   1 H        0.925     0.100     1.788     2.091
    21   1 H        0.925     0.100     1.787     2.091
    22   1 H        0.925     0.083     1.952     2.185
    23   1 H        0.925     0.083     1.951     2.185
    24   1 H        0.925     0.129     1.539     1.940
    25   1 H        0.860     0.233     0.952     1.528

Wiberg/Mayer (AO) data.
largest (>0.10) Wiberg bond orders for each atom

     #   Z sym  total        # sym  WBO       # sym  WBO       # sym  WBO
 ---------------------------------------------------------------------------
     1   6 C    1.909 --    16 H    0.954    15 H    0.954
     2   7 N    3.627 --     3 C    1.398     6 C    1.176    17 H    0.909
     3   6 C    3.844 --     2 N    1.398     4 N    1.291    18 H    0.950
     4   7 N    3.595 --     3 C    1.291     5 C    1.183    25 H    0.917
     5   6 C    3.952 --     6 C    1.359    13 N    1.224     4 N    1.183
     6   6 C    3.909 --     5 C    1.359     2 N    1.176     7 C    1.052
     7   6 C    3.951 --     8 O    1.705     9 N    1.104     6 C    1.052
     8   8 O    2.044 --     7 C    1.705     9 N    0.153
     9   7 N    3.557 --    11 C    1.126     7 C    1.104    10 C    0.967
                             8 O    0.153    12 O    0.137
    10   6 C    3.910 --    19 H    0.968     9 N    0.967    20 H    0.964
                            21 H    0.964
    11   6 C    3.957 --    12 O    1.715     9 N    1.126    13 N    1.026
    12   8 O    2.066 --    11 C    1.715     9 N    0.137    13 N    0.121
    13   7 N    3.554 --     5 C    1.224    11 C    1.026    14 C    0.974
                            12 O    0.121
    14   6 C    3.923 --    13 N    0.974    22 H    0.971    23 H    0.971
                            24 H    0.963
    15   1 H    0.956 --     1 C    0.954
    16   1 H    0.956 --     1 C    0.954
    17   1 H    0.936 --     2 N    0.909
    18   1 H    0.980 --     3 C    0.950
    19   1 H    0.985 --    10 C    0.968
    20   1 H    0.984 --    10 C    0.964
    21   1 H    0.984 --    10 C    0.964
    22   1 H    0.990 --    14 C    0.971
    23   1 H    0.990 --    14 C    0.971
    24   1 H    0.983 --    14 C    0.963
    25   1 H    0.945 --     4 N    0.917
 ---------------------------------------------------------------------------

molecular dipole:
                 x           y           z       tot (Debye)
 q only:        2.250      -2.072      -0.023
   full:        3.018      -2.261       0.004       9.584

           -------------------------------------------------
          | TOTAL ENERGY              -42.061931039393 Eh   |
          | GRADIENT NORM               0.002585499942 Eh/α |
          | HOMO-LUMO GAP               0.928539045601 eV   |
           -------------------------------------------------

 * finished run on 2024/06/05 at 19:57:50.369
