   * xtb version 6.6.1 (8d0f1dd) compiled by 'conda@1efc2f54142f' on 2023-08-01
          program call               : xtb struc.xyz --opt loose --input .xc1 --gfn2

   ID    Z sym.   atoms
    1    6 C      1, 3, 5-7, 10, 11, 14
    2    7 N      2, 4, 9, 13
    3    8 O      8, 12
    4    1 H      15-25
constraining bond 7 16 to    4.7133300 Å, actual value:    3.9875359 Å

          :  Hamiltonian                  GFN2-xTB          :
 * total energy  :   -43.2006277 Eh     change       -0.2401990E-09 Eh
 * total energy  :   -45.9150057 Eh     change       -0.2714378E+01 Eh
 * total energy  :   -50.3954589 Eh     change       -0.4480453E+01 Eh
 * total energy  :   -56.9155349 Eh     change       -0.6520076E+01 Eh
 * total energy  :   -65.4389014 Eh     change       -0.8523367E+01 Eh
 * total energy  :   -72.5536243 Eh     change       -0.7114723E+01 Eh
 * total energy  :   -71.5734316 Eh     change        0.9801927E+00 Eh
 * total energy  :   -72.7157684 Eh     change       -0.1142337E+01 Eh
 * total energy  :   -72.8088637 Eh     change       -0.9309526E-01 Eh
 * total energy  :   -72.5277834 Eh     change        0.2810803E+00 Eh
 * total energy  :   -73.3385665 Eh     change        0.5831778E-02 Eh
 * total energy  :   -73.3445619 Eh     change       -0.5995467E-02 Eh
 * total energy  :   -73.3447389 Eh     change       -0.1769374E-03 Eh
 * total energy  :   -73.3448084 Eh     change       -0.6953758E-04 Eh
 * total energy  :   -73.3449302 Eh     change       -0.1218378E-03 Eh
 * total energy  :   -73.3450387 Eh     change       -0.1084506E-03 Eh
 * total energy  :   -73.3451062 Eh     change       -0.6748893E-04 Eh
 * total energy  :   -73.3451403 Eh     change       -0.3412784E-04 Eh
 * total energy  :   -73.3451532 Eh     change       -0.1284116E-04 Eh
   *** GEOMETRY OPTIMIZATION CONVERGED AFTER 53 ITERATIONS ***

 final structure:
================
25
 xtb: 6.6.1 (8d0f1dd)
C            3.32340208472978        0.99356296331577        0.16182388557263
N            2.41689765088592        0.01732080407242        0.12160251339087
C            2.61616220537437       -1.30260151280679        0.37135303318048
N            1.43827790502000       -1.96649284890820        0.26407403636340
C            0.46565247574371       -1.06011693766851       -0.06048404780349
C            1.07400015693729        0.16978385908561       -0.17219277163592
C            0.31942777038897        1.47936554479288       -0.58407205266326
O            0.70328427380298        2.46428783353717        0.21894576198958
N           -1.19370326793728        1.05744944013241       -0.16123436168746
C           -2.04527632804432        2.19428290861629        0.04174636145406
C           -1.74733337920227       -0.17454390062784       -0.13969808541792
O           -2.93696634935393       -0.37122033579248       -0.04557168650774
N           -0.86203352759361       -1.28278308260975       -0.19220158450117
C           -1.41811919255213       -2.61589811687261       -0.14774039265953
H            4.34229522848557        0.75781508228500        0.40497022501836
H            0.29562608800756        1.53141379339710       -0.96333796933902
H            2.99422578401494        2.00767898023370        0.01509769818942
H            3.55648164916207       -1.74860430264576        0.62095962629525
H           -1.43557473054021        2.99208243253020        0.47440042088178
H           -2.46897050909753        2.54274865743054       -0.90647251734965
H           -2.86553716568081        1.93244763228315        0.71097520088161
H           -1.23423194291274       -3.08958496825353        0.81924964576606
H           -0.99851055348855       -3.22609902963763       -0.94852064242697
H           -2.49581569374745       -2.52717941117377       -0.28811498252270
H            1.31677088169762       -2.95687694311919        0.41561430343701

          :  Hamiltonian                  GFN2-xTB          :
         :: total energy             -73.345153158588 Eh    ::
         :: gradient norm              0.003844620379 Eh/a0 ::
         :: HOMO-LUMO gap              0.635606413578 eV    ::
         :: SCC energy               -42.659738306901 Eh    ::
         :: -> dispersion             -0.022786872791 Eh    ::
         :: repulsion energy           2.787653165829 Eh    ::

    * Orbital Energies and Occupations

         #    Occupation            Energy/Eh            Energy/eV
      -------------------------------------------------------------
         1        2.0000           -0.9116070             -24.8061
       ...           ...                  ...                  ...
        25        1.9983           -0.6723084             -18.2944
        26        1.9978           -0.6664038             -18.1338
        27        1.9971           -0.6601241             -17.9629
        28        1.9928           -0.6384429             -17.3729
        29        1.9926           -0.6375876             -17.3496
        30        1.9898           -0.6301356             -17.1469
        31        1.9852           -0.6211673             -16.9028
        32        1.9725           -0.6063106             -16.4986
        33        1.9394           -0.5871095             -15.9761
        34        1.8545           -0.5652275             -15.3806
        35        1.8009           -0.5570832             -15.1590
        36        1.7321           -0.5491156             -14.9422
        37        1.5644           -0.5351466             -14.5621 (HOMO)
        38        1.1464           -0.5117885             -13.9265 (LUMO)
        39        0.0287           -0.4042886             -11.0013
        40        0.0109           -0.3810899             -10.3700
        41        0.0018           -0.3377423              -9.1904
        42        0.0001           -0.2758541              -7.5064
        43        0.0000           -0.2036906              -5.5427
        44        0.0000           -0.1764797              -4.8023
        45        0.0000           -0.1720893              -4.6828
        46                         -0.0922676              -2.5107
        47                         -0.0777014              -2.1144
        48                         -0.0446872              -1.2160
       ...                                ...                  ...
        67                         13.7299622             373.6113
      -------------------------------------------------------------
                  HL-Gap            0.0233581 Eh            0.6356 eV

     #   Z          covCN         q      C6AA      α(0)
     1   6 C        2.789    -0.062    29.533     8.902
     2   7 N        2.816     0.128    19.052     6.483
     3   6 C        3.036     0.028    27.339     8.576
     4   7 N        2.784    -0.059    22.389     7.028
     5   6 C        3.016     0.112    25.509     8.285
     6   6 C        3.099    -0.019    28.345     8.725
     7   6 C        3.631     0.150    18.527     6.197
     8   8 O        0.861    -0.426    22.203     6.318
     9   7 N        2.703    -0.124    23.698     7.230
    10   6 C        3.700    -0.053    21.689     6.660
    11   6 C        2.719     0.319    21.570     7.603
    12   8 O        0.860    -0.346    20.636     6.091
    13   7 N        2.738    -0.055    22.300     7.014
    14   6 C        3.697    -0.071    22.033     6.714
    15   1 H        0.926     0.115     1.657     2.013
    16   1 H        0.944     0.189     1.157     1.681
    17   1 H        0.926     0.145     1.428     1.869
    18   1 H        0.927     0.125     1.572     1.961
    19   1 H        0.924     0.132     1.520     1.928
    20   1 H        0.924     0.112     1.682     2.028
    21   1 H        0.924     0.118     1.632     1.998
    22   1 H        0.924     0.090     1.884     2.146
    23   1 H        0.924     0.091     1.872     2.140
    24   1 H        0.924     0.132     1.519     1.927
    25   1 H        0.860     0.230     0.966     1.539

Wiberg/Mayer (AO) data.
largest (>0.10) Wiberg bond orders for each atom

     #   Z sym  total        # sym  WBO       # sym  WBO       # sym  WBO
 ---------------------------------------------------------------------------
     1   6 C    3.324 --     2 N    1.306    15 H    0.963    17 H    0.950
     2   7 N    3.750 --     1 C    1.306     3 C    1.224     6 C    1.123
     3   6 C    3.615 --     4 N    1.260     2 N    1.224    18 H    0.953
     4   7 N    3.504 --     3 C    1.260     5 C    1.167    25 H    0.918
     5   6 C    3.900 --     6 C    1.398    13 N    1.181     4 N    1.167
     6   6 C    3.676 --     5 C    1.398     2 N    1.123     7 C    0.896
     7   6 C    3.873 --     8 O    1.248    16 H    0.907     6 C    0.896
                             9 N    0.750
     8   8 O    1.397 --     7 C    1.248
     9   7 N    3.250 --    11 C    1.218    10 C    1.016     7 C    0.750
                            12 O    0.131
    10   6 C    3.844 --     9 N    1.016    21 H    0.940    19 H    0.932
                            20 H    0.920
    11   6 C    3.938 --    12 O    1.630     9 N    1.218    13 N    1.010
    12   8 O    1.922 --    11 C    1.630     9 N    0.131
    13   7 N    3.416 --     5 C    1.181    11 C    1.010    14 C    0.985
    14   6 C    3.899 --    13 N    0.985    23 H    0.961    22 H    0.956
                            24 H    0.955
    15   1 H    0.982 --     1 C    0.963
    16   1 H    0.932 --     7 C    0.907
    17   1 H    0.974 --     1 C    0.950
    18   1 H    0.983 --     3 C    0.953
    19   1 H    0.954 --    10 C    0.932
    20   1 H    0.934 --    10 C    0.920
    21   1 H    0.956 --    10 C    0.940
    22   1 H    0.971 --    14 C    0.956
    23   1 H    0.975 --    14 C    0.961
    24   1 H    0.976 --    14 C    0.955
    25   1 H    0.946 --     4 N    0.918
 ---------------------------------------------------------------------------

molecular dipole:
                 x           y           z       tot (Debye)
 q only:        2.147      -2.035      -0.265
   full:        2.328      -2.431      -0.286       8.585

           -------------------------------------------------
          | TOTAL ENERGY              -73.345153158588 Eh   |
          | GRADIENT NORM               0.003844620379 Eh/α |
          | HOMO-LUMO GAP               0.635606413578 eV   |
           -------------------------------------------------

 * finished run on 2024/06/05 at 19:59:00.390
