   * xtb version 6.6.1 (8d0f1dd) compiled by 'conda@1efc2f54142f' on 2023-08-01
          program call               : xtb xtbopt.xyz --opt crude --input .xc2 --gfn2

   ID    Z sym.   atoms
    1    6 C      1, 3, 5-7, 10, 11, 14
    2    7 N      2, 4, 9, 13
    3    8 O      8, 12
    4    1 H      15-25
########################################################################
[WARNING] Please study the warnings concerning your input carefully
-1- readin_getIntValue: could not parse ''
########################################################################

          :  Hamiltonian                  GFN2-xTB          :
 * total energy  :   -39.8719456 Eh     change       -0.2067679E-11 Eh
 * total energy  :   -42.1448414 Eh     change       -0.2272896E+01 Eh
 * total energy  :   -42.1558471 Eh     change       -0.1100568E-01 Eh
 * total energy  :   -42.1615313 Eh     change       -0.5684170E-02 Eh
 * total energy  :   -42.1639779 Eh     change       -0.2446644E-02 Eh
 * total energy  :   -42.1647978 Eh     change       -0.8198787E-03 Eh
 * total energy  :   -42.1662105 Eh     change       -0.1412677E-02 Eh
 * total energy  :   -42.1672337 Eh     change       -0.1023160E-02 Eh
 * total energy  :   -42.1680225 Eh     change       -0.7888654E-03 Eh
 * total energy  :   -42.1684353 Eh     change       -0.4127909E-03 Eh
   *** GEOMETRY OPTIMIZATION CONVERGED AFTER 10 ITERATIONS ***

 final structure:
================
25
 xtb: 6.6.1 (8d0f1dd)
C            3.28911215563885        1.01683080368742        0.20714576663428
N            2.40706992438903        0.01973612007347        0.13692725052304
C            2.63128901057213       -1.30147177141012        0.36669901279439
N            1.46141670266887       -1.98448034027166        0.27451095239471
C            0.47231081261226       -1.08813921761517       -0.02856510191702
C            1.06179579792928        0.14930991523766       -0.13695577805044
C            0.28244802446551        1.41280388411477       -0.41279892411764
O            0.70932718365335        2.46285253758822        0.20313074921791
N           -1.14715389905930        1.05949000934192       -0.08470367776288
C           -2.01354796155838        2.20038317322633        0.07569088546000
C           -1.72217496792658       -0.17245098788788       -0.10142263987543
O           -2.91727727430755       -0.34115792351727       -0.04779746729277
N           -0.86132043855961       -1.29701676460867       -0.13757755050038
C           -1.44278292050986       -2.61975250372539       -0.14940329068384
H            4.31537660495861        0.80298349725872        0.43373184695118
H            0.26152377512734        1.56402379512120       -1.53088373754842
H            2.92062575103331        2.02150545326217        0.08796539476317
H            3.58469069642127       -1.73702665999864        0.58376868166781
H           -1.41780164669141        3.00454170927841        0.51467804728658
H           -2.40595378171670        2.53476063070712       -0.88909166534938
H           -2.84994730673888        1.93780550194426        0.72215639881496
H           -1.29560207415074       -3.12500599318267        0.80793648157183
H           -1.01256412768868       -3.21698394179367       -0.95449553192382
H           -2.51439823923840       -2.50538400768104       -0.31666790918988
H            1.36396971277629       -2.97991837755331        0.40719342403773

          :  Hamiltonian                  GFN2-xTB          :
         :: total energy             -42.168435307304 Eh    ::
         :: gradient norm              0.008561520595 Eh/a0 ::
         :: HOMO-LUMO gap              0.546747136898 eV    ::
         :: SCC energy               -42.668061098208 Eh    ::
         :: -> dispersion             -0.022879556358 Eh    ::
         :: repulsion energy           0.499478114943 Eh    ::

    * Orbital Energies and Occupations

         #    Occupation            Energy/Eh            Energy/eV
      -------------------------------------------------------------
         1        2.0000           -0.9107639             -24.7831
       ...           ...                  ...                  ...
        25        1.9984           -0.6725631             -18.3014
        26        1.9980           -0.6666404             -18.1402
        27        1.9971           -0.6578624             -17.9013
        28        1.9932           -0.6380001             -17.3609
        29        1.9926           -0.6358148             -17.3014
        30        1.9905           -0.6298522             -17.1392
        31        1.9858           -0.6202146             -16.8769
        32        1.9740           -0.6058001             -16.4847
        33        1.9418           -0.5862298             -15.9521
        34        1.8531           -0.5631413             -15.3239
        35        1.8190           -0.5577424             -15.1769
        36        1.7456           -0.5486757             -14.9302
        37        1.5201           -0.5303203             -14.4308 (HOMO)
        38        1.1523           -0.5102278             -13.8840 (LUMO)
        39        0.0308           -0.4042156             -10.9993
        40        0.0107           -0.3788233             -10.3083
        41        0.0020           -0.3388733              -9.2212
        42        0.0000           -0.2107352              -5.7344
        43        0.0000           -0.1961155              -5.3366
        44        0.0000           -0.1618064              -4.4030
        45        0.0000           -0.1411895              -3.8420
        46                         -0.0880527              -2.3960
        47                         -0.0681982              -1.8558
        48                         -0.0414921              -1.1291
       ...                                ...                  ...
        67                          0.4949008              13.4669
      -------------------------------------------------------------
                  HL-Gap            0.0200926 Eh            0.5467 eV

     #   Z          covCN         q      C6AA      α(0)
     1   6 C        2.790    -0.064    29.574     8.908
     2   7 N        2.815     0.127    19.071     6.486
     3   6 C        3.042     0.027    27.367     8.580
     4   7 N        2.783    -0.059    22.383     7.027
     5   6 C        3.020     0.110    25.547     8.291
     6   6 C        3.110    -0.016    28.254     8.708
     7   6 C        3.661     0.218    17.430     5.990
     8   8 O        0.856    -0.412    21.918     6.277
     9   7 N        2.734    -0.096    23.122     7.142
    10   6 C        3.704    -0.057    21.751     6.668
    11   6 C        2.721     0.316    21.630     7.613
    12   8 O        0.860    -0.346    20.628     6.089
    13   7 N        2.738    -0.055    22.303     7.014
    14   6 C        3.695    -0.071    22.031     6.715
    15   1 H        0.926     0.115     1.650     2.009
    16   1 H        0.918     0.086     1.919     2.166
    17   1 H        0.926     0.148     1.408     1.856
    18   1 H        0.926     0.125     1.574     1.962
    19   1 H        0.924     0.132     1.521     1.929
    20   1 H        0.924     0.110     1.697     2.037
    21   1 H        0.925     0.118     1.626     1.994
    22   1 H        0.924     0.091     1.866     2.136
    23   1 H        0.924     0.090     1.879     2.144
    24   1 H        0.924     0.132     1.522     1.929
    25   1 H        0.860     0.230     0.967     1.541

Wiberg/Mayer (AO) data.
largest (>0.10) Wiberg bond orders for each atom

     #   Z sym  total        # sym  WBO       # sym  WBO       # sym  WBO
 ---------------------------------------------------------------------------
     1   6 C    3.320 --     2 N    1.304    15 H    0.962    17 H    0.946
     2   7 N    3.750 --     1 C    1.304     3 C    1.222     6 C    1.127
     3   6 C    3.612 --     4 N    1.256     2 N    1.222    18 H    0.954
     4   7 N    3.505 --     3 C    1.256     5 C    1.170    25 H    0.919
     5   6 C    3.900 --     6 C    1.396    13 N    1.176     4 N    1.170
     6   6 C    3.711 --     5 C    1.396     2 N    1.127     7 C    0.938
     7   6 C    3.928 --     8 O    1.234     6 C    0.938     9 N    0.861
                            16 H    0.836
     8   8 O    1.366 --     7 C    1.234
     9   7 N    3.302 --    11 C    1.197    10 C    1.000     7 C    0.861
                            12 O    0.132
    10   6 C    3.847 --     9 N    1.000    21 H    0.946    19 H    0.936
                            20 H    0.926
    11   6 C    3.940 --    12 O    1.641     9 N    1.197    13 N    1.020
    12   8 O    1.937 --    11 C    1.641     9 N    0.132
    13   7 N    3.422 --     5 C    1.176    11 C    1.020    14 C    0.984
    14   6 C    3.900 --    13 N    0.984    23 H    0.962    22 H    0.957
                            24 H    0.956
    15   1 H    0.982 --     1 C    0.962
    16   1 H    0.862 --     7 C    0.836
    17   1 H    0.973 --     1 C    0.946
    18   1 H    0.983 --     3 C    0.954
    19   1 H    0.957 --    10 C    0.936
    20   1 H    0.939 --    10 C    0.926
    21   1 H    0.961 --    10 C    0.946
    22   1 H    0.972 --    14 C    0.957
    23   1 H    0.976 --    14 C    0.962
    24   1 H    0.976 --    14 C    0.956
    25   1 H    0.946 --     4 N    0.919
 ---------------------------------------------------------------------------

molecular dipole:
                 x           y           z       tot (Debye)
 q only:        2.090      -2.063      -0.134
   full:        2.297      -2.493      -0.254       8.639

           -------------------------------------------------
          | TOTAL ENERGY              -42.168435307304 Eh   |
          | GRADIENT NORM               0.008561520595 Eh/α |
          | HOMO-LUMO GAP               0.546747136898 eV   |
           -------------------------------------------------

 * finished run on 2024/06/05 at 19:59:00.817
