   * xtb version 6.6.1 (8d0f1dd) compiled by 'conda@1efc2f54142f' on 2023-08-01
          program call               : xtb struc.xyz --opt loose --input .xc1 --gfn2

   ID    Z sym.   atoms
    1    6 C      1, 3, 5-7, 10, 11, 14
    2    7 N      2, 4, 9, 13
    3    8 O      8, 12
    4    1 H      15-25
constraining bond 9 13 to    4.8400000 Å, actual value:    2.3869999 Å

          :  Hamiltonian                  GFN2-xTB          :
 * total energy  :   -31.5039378 Eh     change       -0.6650680E-10 Eh
 * total energy  :   -35.4563169 Eh     change       -0.3952379E+01 Eh
 * total energy  :   -38.4044006 Eh     change       -0.2948084E+01 Eh
 * total energy  :   -40.2049729 Eh     change       -0.1800572E+01 Eh
 * total energy  :   -41.2803397 Eh     change       -0.1075367E+01 Eh
 * total energy  :   -41.5875543 Eh     change       -0.3072146E+00 Eh
 * total energy  :   -41.6343597 Eh     change       -0.4680534E-01 Eh
 * total energy  :   -41.6925488 Eh     change       -0.5818907E-01 Eh
 * total energy  :   -41.7433629 Eh     change       -0.5081417E-01 Eh
 * total energy  :   -41.7704957 Eh     change       -0.2713282E-01 Eh
 * total energy  :   -42.0989729 Eh     change       -0.1002218E-03 Eh
 * total energy  :   -42.0991052 Eh     change       -0.1323297E-03 Eh
 * total energy  :   -42.0991753 Eh     change       -0.7002968E-04 Eh
 * total energy  :   -42.0992349 Eh     change       -0.5966408E-04 Eh
 * total energy  :   -42.0992876 Eh     change       -0.5267744E-04 Eh
 * total energy  :   -42.0993420 Eh     change       -0.5444954E-04 Eh
 * total energy  :   -42.0994232 Eh     change       -0.8116841E-04 Eh
 * total energy  :   -42.0994752 Eh     change       -0.5198991E-04 Eh
 * total energy  :   -42.0994948 Eh     change       -0.1956792E-04 Eh
   *** GEOMETRY OPTIMIZATION CONVERGED AFTER 101 ITERATIONS ***

 final structure:
================
25
 xtb: 6.6.1 (8d0f1dd)
C            2.06440110995973        1.52912175182058       -0.32091910387463
N            1.67217500346141        0.14179104966106       -0.29777111802760
C            2.49201074731753       -0.82571274146062       -0.67232799613533
N            1.92728939012793       -2.00840980617533       -0.46149084541508
C            0.66170349256826       -1.86534544179802        0.11982324267872
C            0.49029198350987       -0.40665793295789        0.19692411682853
C           -0.58331067525181        0.35923855576440        0.77716487186342
O           -1.43690308740021       -0.12982691630817        1.49430217013048
N           -0.64073111639112        1.80428521104636        0.54011491245855
C           -1.13811395151775        2.24035198097078       -0.75642402680987
C           -2.54366193635012        1.93774544439601       -0.89546621122436
O           -3.59306440110102        1.56494839942193       -0.58484923084819
N            0.06253656406578       -2.97273420027661        0.38357370635381
C           -1.20664919513398       -3.16105020060356        0.97006277722524
H            1.57176358620567        2.06872080469044        0.48468525424222
H            3.14366208883020        1.59547154091643       -0.19274966612951
H            1.80359918473639        1.99370106222860       -1.27361440771511
H            3.47483943496801       -0.67104806557815       -1.07566194533006
H           -1.18650576521264        2.20504334792234        1.30031729696161
H           -0.58246883951774        1.74447354362933       -1.56210357365529
H           -0.98921577035921        3.32514792109856       -0.85495125648370
H           -1.11437534348864       -3.95918504831505        1.71014060646733
H           -1.90121736084299       -3.51329989805923        0.20144429115704
H           -1.61413364786407       -2.26032010999711        1.43949997562282
H            2.32651001878224       -2.91821171043254       -0.63855222244185

          :  Hamiltonian                  GFN2-xTB          :
         :: total energy             -42.099494772788 Eh    ::
         :: gradient norm              0.002421642487 Eh/a0 ::
         :: HOMO-LUMO gap              1.221238125905 eV    ::
         :: SCC energy               -42.621111809616 Eh    ::
         :: -> dispersion             -0.021599901585 Eh    ::
         :: repulsion energy           0.521245185974 Eh    ::

    * Orbital Energies and Occupations

         #    Occupation            Energy/Eh            Energy/eV
      -------------------------------------------------------------
         1        2.0000           -0.9279474             -25.2507
       ...           ...                  ...                  ...
        25        2.0000           -0.6652455             -18.1023
        26        2.0000           -0.6532751             -17.7765
        27        2.0000           -0.6421142             -17.4728
        28        1.9999           -0.6406045             -17.4317
        29        1.9999           -0.6323082             -17.2060
        30        1.9999           -0.6294943             -17.1294
        31        1.9995           -0.6030949             -16.4110
        32        1.9993           -0.5980026             -16.2725
        33        1.9965           -0.5731242             -15.5955
        34        1.9960           -0.5710653             -15.5395
        35        1.9781           -0.5441601             -14.8074
        36        1.8040           -0.5079718             -13.8226
        37        1.6276           -0.4961790             -13.5017 (HOMO)
        38        0.4086           -0.4512993             -12.2805 (LUMO)
        39        0.1462           -0.4326068             -11.7718
        40        0.0424           -0.4121457             -11.2151
        41        0.0022           -0.3650223              -9.9328
        42        0.0000           -0.2984141              -8.1203
        43                         -0.1758075              -4.7840
        44                         -0.1663744              -4.5273
        45                         -0.1211299              -3.2961
        46                         -0.0733060              -1.9948
        47                         -0.0650009              -1.7688
        48                         -0.0625083              -1.7009
       ...                                ...                  ...
        67                          0.7289164              19.8348
      -------------------------------------------------------------
                  HL-Gap            0.0448797 Eh            1.2212 eV

     #   Z          covCN         q      C6AA      α(0)
     1   6 C        3.696    -0.092    22.431     6.775
     2   7 N        2.816     0.052    20.340     6.698
     3   6 C        2.968     0.068    26.476     8.440
     4   7 N        2.801    -0.071    22.607     7.062
     5   6 C        2.931     0.140    24.940     8.190
     6   6 C        3.033    -0.039    28.928     8.822
     7   6 C        2.747     0.260    22.616     7.787
     8   8 O        0.858    -0.386    21.398     6.202
     9   7 N        2.683    -0.238    26.209     7.603
    10   6 C        3.738     0.001    20.650     6.484
    11   6 C        1.842     0.226    25.874     8.217
    12   8 O        0.856    -0.070    16.076     5.376
    13   7 N        1.838    -0.194    26.033     7.561
    14   6 C        3.693    -0.045    21.572     6.646
    15   1 H        0.925     0.113     1.669     2.020
    16   1 H        0.925     0.098     1.805     2.101
    17   1 H        0.924     0.088     1.896     2.153
    18   1 H        0.926     0.109     1.707     2.043
    19   1 H        0.860     0.201     1.101     1.644
    20   1 H        0.924     0.124     1.582     1.967
    21   1 H        0.923     0.140     1.460     1.890
    22   1 H        0.924     0.097     1.810     2.104
    23   1 H        0.924     0.091     1.865     2.136
    24   1 H        0.924     0.095     1.829     2.115
    25   1 H        0.860     0.230     0.965     1.539

Wiberg/Mayer (AO) data.
largest (>0.10) Wiberg bond orders for each atom

     #   Z sym  total        # sym  WBO       # sym  WBO       # sym  WBO
 ---------------------------------------------------------------------------
     1   6 C    3.934 --     2 N    0.989    16 H    0.972    17 H    0.963
                            15 H    0.961
     2   7 N    3.659 --     3 C    1.383     6 C    1.125     1 C    0.989
                             4 N    0.104
     3   6 C    3.882 --     2 N    1.383     4 N    1.341    18 H    0.952
     4   7 N    3.555 --     3 C    1.341     5 C    1.083    25 H    0.918
                             2 N    0.104
     5   6 C    3.936 --    13 N    1.569     6 C    1.137     4 N    1.083
     6   6 C    3.737 --     7 C    1.165     5 C    1.137     2 N    1.125
     7   6 C    3.915 --     8 O    1.679     6 C    1.165     9 N    0.980
     8   8 O    1.971 --     7 C    1.679
     9   7 N    3.151 --     7 C    0.980    10 C    0.978    19 H    0.932
    10   6 C    3.951 --    11 C    1.071     9 N    0.978    20 H    0.919
                            21 H    0.910
    11   6 C    3.346 --    12 O    2.164    10 C    1.071
    12   8 O    2.301 --    11 C    2.164
    13   7 N    2.835 --     5 C    1.569    14 C    1.066
    14   6 C    3.902 --    13 N    1.066    22 H    0.939    23 H    0.928
                            24 H    0.927
    15   1 H    0.986 --     1 C    0.961
    16   1 H    0.989 --     1 C    0.972
    17   1 H    0.989 --     1 C    0.963
    18   1 H    0.986 --     3 C    0.952
    19   1 H    0.959 --     9 N    0.932
    20   1 H    0.974 --    10 C    0.919
    21   1 H    0.968 --    10 C    0.910
    22   1 H    0.961 --    14 C    0.939
    23   1 H    0.958 --    14 C    0.928
    24   1 H    0.948 --    14 C    0.927
    25   1 H    0.946 --     4 N    0.918
 ---------------------------------------------------------------------------

molecular dipole:
                 x           y           z       tot (Debye)
 q only:        1.795       0.940      -1.593
   full:        1.836       1.164      -1.709       7.029

           -------------------------------------------------
          | TOTAL ENERGY              -42.099494772788 Eh   |
          | GRADIENT NORM               0.002421642487 Eh/α |
          | HOMO-LUMO GAP               1.221238125905 eV   |
           -------------------------------------------------

 * finished run on 2024/06/05 at 20:00:19.312
