   * xtb version 6.6.1 (8d0f1dd) compiled by 'conda@1efc2f54142f' on 2023-08-01
          program call               : xtb struc.xyz --opt loose --input .xc1 --gfn2

   ID    Z sym.   atoms
    1    6 C      1, 3, 5-7, 10, 11, 14
    2    7 N      2, 4, 9, 13
    3    8 O      8, 12
    4    1 H      15-25
constraining bond 12 13 to    4.6800000 Å, actual value:    2.2702978 Å

          :  Hamiltonian                  GFN2-xTB          :
 * total energy  :   -31.8798725 Eh     change       -0.6650680E-10 Eh
 * total energy  :   -35.7560662 Eh     change       -0.3876194E+01 Eh
 * total energy  :   -38.7583932 Eh     change       -0.3002327E+01 Eh
 * total energy  :   -40.6466751 Eh     change       -0.1888282E+01 Eh
 * total energy  :   -41.4975720 Eh     change       -0.8508970E+00 Eh
 * total energy  :   -41.6719551 Eh     change       -0.1743831E+00 Eh
 * total energy  :   -41.7042779 Eh     change       -0.3232275E-01 Eh
 * total energy  :   -41.7356994 Eh     change       -0.3142156E-01 Eh
 * total energy  :   -41.7607652 Eh     change       -0.2506581E-01 Eh
 * total energy  :   -41.7809263 Eh     change       -0.2016111E-01 Eh
 * total energy  :   -42.1233398 Eh     change       -0.2337140E-03 Eh
 * total energy  :   -42.1235610 Eh     change       -0.2212243E-03 Eh
 * total energy  :   -42.1237257 Eh     change       -0.1646738E-03 Eh
 * total energy  :   -42.1238052 Eh     change       -0.7951275E-04 Eh
 * total energy  :   -42.1238644 Eh     change       -0.5922110E-04 Eh
 * total energy  :   -42.1239319 Eh     change       -0.6744293E-04 Eh
 * total energy  :   -42.1239968 Eh     change       -0.6492832E-04 Eh
 * total energy  :   -42.1240582 Eh     change       -0.6140601E-04 Eh
 * total energy  :   -42.1241000 Eh     change       -0.4178061E-04 Eh
   *** GEOMETRY OPTIMIZATION CONVERGED AFTER 50 ITERATIONS ***

 final structure:
================
25
 xtb: 6.6.1 (8d0f1dd)
C            2.67467093250858        1.31945895938941       -0.00346127760438
N            2.11172104683357       -0.00573435134571       -0.02357793758485
C            2.84291514996237       -1.08443724100698       -0.20614226456715
N            2.06498693566563       -2.16318323365934       -0.23425234525103
C            0.73254198255464       -1.79726505365706       -0.06783729245868
C            0.75212015102262       -0.35424871672891        0.04261419078588
C           -0.12993651065598        0.70954133793660        0.46155995592450
O            0.29316611820894        1.63772477154076        1.11650755151467
N           -1.50919482398968        0.90275837718516       -0.02130854822177
C           -1.86452789611076        2.34231526740619       -0.14759269699343
C           -2.56904033767211        0.15582820633484       -0.06686585608344
O           -3.73250074784024        0.21974669683500       -0.20678088730669
N           -0.12724175781444       -2.74386802621919       -0.00948551743684
C           -1.51229519263395       -2.57241865991336        0.12285765976858
H            2.57886933061204        1.76306989633789        0.98831445995214
H            3.72602389025063        1.25942475519553       -0.27553671889360
H            2.15784845147906        1.96341327227387       -0.71426048404302
H            3.90929621372299       -1.09406595774503       -0.32975977783065
H           -0.94838944583344        2.92458954714845       -0.20854460779047
H           -2.45879090782368        2.47659210254349       -1.04940639647833
H           -2.43516956300029        2.67484758526541        0.72006434932862
H           -1.84387423685157       -2.96992598458951        1.08640512287000
H           -2.02097369424324       -3.13236916989635       -0.66611923483019
H           -1.87985171504824       -1.48686874792801        0.05881802294633
H            2.34805814079586       -3.12668709110302       -0.33503785181635

          :  Hamiltonian                  GFN2-xTB          :
         :: total energy             -42.124099968660 Eh    ::
         :: gradient norm              0.003330642186 Eh/a0 ::
         :: HOMO-LUMO gap              1.458582698809 eV    ::
         :: SCC energy               -42.651153550075 Eh    ::
         :: -> dispersion             -0.021864155446 Eh    ::
         :: repulsion energy           0.526740446731 Eh    ::

    * Orbital Energies and Occupations

         #    Occupation            Energy/Eh            Energy/eV
      -------------------------------------------------------------
         1        2.0000           -0.9119032             -24.8141
       ...           ...                  ...                  ...
        25        2.0000           -0.6720882             -18.2885
        26        2.0000           -0.6627461             -18.0342
        27        2.0000           -0.6554758             -17.8364
        28        1.9999           -0.6516007             -17.7310
        29        1.9998           -0.6352926             -17.2872
        30        1.9997           -0.6277235             -17.0812
        31        1.9997           -0.6269698             -17.0607
        32        1.9990           -0.6062483             -16.4969
        33        1.9980           -0.5953344             -16.1999
        34        1.9973           -0.5908759             -16.0786
        35        1.9942           -0.5788244             -15.7506
        36        1.9376           -0.5406971             -14.7131
        37        1.6899           -0.5131400             -13.9632 (HOMO)
        38        0.3117           -0.4595380             -12.5047 (LUMO)
        39        0.0656           -0.4327204             -11.7749
        40        0.0062           -0.3949630             -10.7475
        41        0.0013           -0.3698745             -10.0648
        42        0.0001           -0.3190768              -8.6825
        43                         -0.2186419              -5.9495
        44                         -0.1762156              -4.7951
        45                         -0.1241473              -3.3782
        46                         -0.1008122              -2.7432
        47                         -0.0654241              -1.7803
        48                         -0.0533405              -1.4515
       ...                                ...                  ...
        67                          0.6591731              17.9370
      -------------------------------------------------------------
                  HL-Gap            0.0536019 Eh            1.4586 eV

     #   Z          covCN         q      C6AA      α(0)
     1   6 C        3.696    -0.085    22.293     6.754
     2   7 N        2.833     0.070    20.014     6.644
     3   6 C        2.978     0.073    26.364     8.422
     4   7 N        2.799    -0.068    22.548     7.052
     5   6 C        2.967     0.142    24.899     8.185
     6   6 C        3.027    -0.045    29.094     8.848
     7   6 C        2.756     0.265    22.538     7.774
     8   8 O        0.861    -0.351    20.727     6.104
     9   7 N        2.724    -0.052    22.249     7.006
    10   6 C        3.742    -0.059    21.712     6.648
    11   6 C        1.827     0.280    24.786     8.044
    12   8 O        0.856    -0.171    17.602     5.625
    13   7 N        1.835    -0.210    26.408     7.615
    14   6 C        3.691    -0.021    21.133     6.579
    15   1 H        0.924     0.127     1.557     1.952
    16   1 H        0.925     0.094     1.839     2.121
    17   1 H        0.925     0.100     1.788     2.091
    18   1 H        0.926     0.117     1.635     2.000
    19   1 H        0.925     0.118     1.631     1.997
    20   1 H        0.925     0.095     1.829     2.115
    21   1 H        0.924     0.102     1.771     2.081
    22   1 H        0.924     0.099     1.798     2.097
    23   1 H        0.924     0.101     1.777     2.084
    24   1 H        0.916     0.046     2.376     2.411
    25   1 H        0.860     0.234     0.949     1.526

Wiberg/Mayer (AO) data.
largest (>0.10) Wiberg bond orders for each atom

     #   Z sym  total        # sym  WBO       # sym  WBO       # sym  WBO
 ---------------------------------------------------------------------------
     1   6 C    3.928 --     2 N    0.990    16 H    0.973    17 H    0.964
                            15 H    0.952
     2   7 N    3.681 --     3 C    1.412     6 C    1.113     1 C    0.990
                             4 N    0.104
     3   6 C    3.888 --     2 N    1.412     4 N    1.328    18 H    0.950
     4   7 N    3.563 --     3 C    1.328     5 C    1.096    25 H    0.917
                             2 N    0.104
     5   6 C    3.946 --    13 N    1.544     6 C    1.161     4 N    1.096
     6   6 C    3.747 --     5 C    1.161     7 C    1.145     2 N    1.113
     7   6 C    3.892 --     8 O    1.711     6 C    1.145     9 N    0.920
     8   8 O    2.027 --     7 C    1.711
     9   7 N    3.536 --    11 C    1.394     7 C    0.920    10 C    0.903
                            12 O    0.181
    10   6 C    3.874 --    20 H    0.974    21 H    0.973    19 H    0.962
                             9 N    0.903
    11   6 C    3.659 --    12 O    1.964     9 N    1.394    24 H    0.148
    12   8 O    2.306 --    11 C    1.964     9 N    0.181
    13   7 N    2.945 --     5 C    1.544    14 C    1.100
    14   6 C    3.899 --    13 N    1.100    23 H    0.944    22 H    0.940
                            24 H    0.803
    15   1 H    0.981 --     1 C    0.952
    16   1 H    0.990 --     1 C    0.973
    17   1 H    0.988 --     1 C    0.964
    18   1 H    0.985 --     3 C    0.950
    19   1 H    0.980 --    10 C    0.962
    20   1 H    0.990 --    10 C    0.974
    21   1 H    0.988 --    10 C    0.973
    22   1 H    0.968 --    14 C    0.940
    23   1 H    0.969 --    14 C    0.944
    24   1 H    0.987 --    14 C    0.803    11 C    0.148
    25   1 H    0.944 --     4 N    0.917
 ---------------------------------------------------------------------------

molecular dipole:
                 x           y           z       tot (Debye)
 q only:        1.750      -0.692      -0.668
   full:        1.808      -0.777      -0.698       5.308

           -------------------------------------------------
          | TOTAL ENERGY              -42.124099968660 Eh   |
          | GRADIENT NORM               0.003330642186 Eh/α |
          | HOMO-LUMO GAP               1.458582698809 eV   |
           -------------------------------------------------

 * finished run on 2024/06/05 at 19:58:02.335
