   * xtb version 6.6.1 (8d0f1dd) compiled by 'conda@1efc2f54142f' on 2023-08-01
          program call               : xtb struc.xyz --opt loose --input .xc1 --gfn2

   ID    Z sym.   atoms
    1    6 C      1, 3, 5-7, 10, 11, 14
    2    7 N      2, 4, 9, 13
    3    8 O      8, 12
    4    1 H      15-25
constraining bond 8 16 to    5.6333300 Å, actual value:    3.8788743 Å

          :  Hamiltonian                  GFN2-xTB          :
 * total energy  :   -47.7439314 Eh     change       -0.6650680E-10 Eh
 * total energy  :   -53.3126329 Eh     change       -0.5568702E+01 Eh
 * total energy  :   -60.7044476 Eh     change       -0.7391815E+01 Eh
 * total energy  :   -70.1579342 Eh     change       -0.9453487E+01 Eh
 * total energy  :   -81.6066772 Eh     change       -0.1144874E+02 Eh
 * total energy  :   -80.2586826 Eh     change        0.1347995E+01 Eh
 * total energy  :   -86.6432128 Eh     change       -0.6384530E+01 Eh
 * total energy  :   -87.4084829 Eh     change       -0.7652702E+00 Eh
 * total energy  :   -88.8419216 Eh     change       -0.1433439E+01 Eh
 * total energy  :   -88.7421647 Eh     change        0.9975686E-01 Eh
 * total energy  :   -89.1733471 Eh     change       -0.4593938E-04 Eh
 * total energy  :   -89.1733916 Eh     change       -0.4456028E-04 Eh
 * total energy  :   -89.1734120 Eh     change       -0.2041708E-04 Eh
 * total energy  :   -89.1734507 Eh     change       -0.3861174E-04 Eh
 * total energy  :   -89.1734780 Eh     change       -0.2730090E-04 Eh
 * total energy  :   -89.1735037 Eh     change       -0.2569628E-04 Eh
 * total energy  :   -89.1735195 Eh     change       -0.1583854E-04 Eh
 * total energy  :   -89.1735422 Eh     change       -0.2273054E-04 Eh
 * total energy  :   -89.1735657 Eh     change       -0.2347606E-04 Eh
   *** GEOMETRY OPTIMIZATION CONVERGED AFTER 111 ITERATIONS ***

 final structure:
================
25
 xtb: 6.6.1 (8d0f1dd)
C            3.23367731883400        0.95000652439593       -0.08022950924486
N            2.31426283555291       -0.01599153415068       -0.02833957133669
C            2.54632389445758       -1.35999302289978        0.01711375019204
N            1.35182494399593       -2.03109212854142        0.06285867111260
C            0.35321836475148       -1.13492915205470        0.04393069349185
C            0.92268097193528        0.15447613999747       -0.01426627338994
C            0.09565936074245        1.25543868731024       -0.04278576994563
O            2.87078664514231        2.25112197514483       -0.13741141793680
N           -1.25281250320558        1.03673072461057       -0.01033274400668
C           -2.14259707017525        2.18027526736979       -0.06653623062574
C           -1.85378395473839       -0.21665230312486        0.03815422258690
O           -3.04534321346795       -0.36061846014011        0.05562526442473
N           -0.98940019830167       -1.32417493679281        0.07188480196621
C           -1.55746399608356       -2.65457245420906        0.12761200950662
H            4.27623961993315        0.66933694883347       -0.08373904342242
H            3.09130492117724        2.55876278796524       -0.14821527335533
H            0.43619603512539        2.27300778550541       -0.08807380944173
H            3.50697872266046       -1.82300288957096        0.02801851093783
H           -1.75950578007017        2.98107876731115        0.56282692170572
H           -2.23650522027706        2.53906661569670       -1.09300207925391
H           -3.12664585183104        1.87507364097696        0.28577371907367
H           -1.25929056312708       -3.15862560773537        1.04800950353092
H           -1.24257415226659       -3.23987959539278       -0.73721800819683
H           -2.64171493205587       -2.55190168247379        0.11347868703119
H            1.26891531539191       -3.03470355643132        0.10603459249558

          :  Hamiltonian                  GFN2-xTB          :
         :: total energy             -89.173565696522 Eh    ::
         :: gradient norm              0.002914305423 Eh/a0 ::
         :: HOMO-LUMO gap              1.161011289320 eV    ::
         :: SCC energy               -42.751108055767 Eh    ::
         :: -> dispersion             -0.022593736206 Eh    ::
         :: repulsion energy           2.878649411095 Eh    ::

    * Orbital Energies and Occupations

         #    Occupation            Energy/Eh            Energy/eV
      -------------------------------------------------------------
         1        2.0000           -0.9028780             -24.5686
       ...           ...                  ...                  ...
        25        2.0000           -0.6638969             -18.0656
        26        2.0000           -0.6579623             -17.9041
        27        2.0000           -0.6414458             -17.4546
        28        2.0000           -0.6397640             -17.4089
        29        2.0000           -0.6360815             -17.3087
        30        1.9999           -0.6176476             -16.8070
        31        1.9999           -0.6136178             -16.6974
        32        1.9999           -0.6111064             -16.6291
        33        1.9998           -0.6038364             -16.4312
        34        1.9995           -0.5846867             -15.9101
        35        1.9980           -0.5627965             -15.3145
        36        1.9944           -0.5466407             -14.8748
        37        1.5814           -0.4745410             -12.9129 (HOMO)
        38        0.4067           -0.4318746             -11.7519 (LUMO)
        39        0.0172           -0.3783299             -10.2949
        40        0.0032           -0.3514163              -9.5625
        41        0.0000           -0.2837375              -7.7209
        42        0.0000           -0.1947333              -5.2990
        43                         -0.1697704              -4.6197
        44                         -0.1266542              -3.4464
        45                         -0.1123688              -3.0577
        46                         -0.0771408              -2.0991
        47                         -0.0577976              -1.5728
        48                         -0.0250982              -0.6830
       ...                                ...                  ...
        67                          6.1060664             166.1545
      -------------------------------------------------------------
                  HL-Gap            0.0426664 Eh            1.1610 eV

     #   Z          covCN         q      C6AA      α(0)
     1   6 C        2.786     0.090    25.975     8.348
     2   7 N        2.798     0.069    20.035     6.648
     3   6 C        3.015    -0.014    28.332     8.731
     4   7 N        2.765    -0.058    22.352     7.022
     5   6 C        3.020     0.101    25.745     8.323
     6   6 C        3.072     0.014    27.629     8.618
     7   6 C        2.854    -0.005    28.134     8.694
     8   8 O        1.664    -0.368    20.240     6.073
     9   7 N        2.745    -0.023    21.693     6.917
    10   6 C        3.707    -0.074    22.075     6.716
    11   6 C        2.723     0.313    21.687     7.624
    12   8 O        0.859    -0.375    21.196     6.173
    13   7 N        2.737    -0.056    22.319     7.017
    14   6 C        3.698    -0.071    22.028     6.713
    15   1 H        0.926     0.083     1.953     2.185
    16   1 H        0.883     0.368     0.541     1.151
    17   1 H        0.926     0.108     1.714     2.048
    18   1 H        0.927     0.101     1.779     2.086
    19   1 H        0.925     0.088     1.895     2.153
    20   1 H        0.924     0.092     1.863     2.135
    21   1 H        0.925     0.116     1.642     2.004
    22   1 H        0.924     0.080     1.977     2.199
    23   1 H        0.924     0.079     1.986     2.204
    24   1 H        0.925     0.123     1.590     1.972
    25   1 H        0.860     0.219     1.015     1.579

Wiberg/Mayer (AO) data.
largest (>0.10) Wiberg bond orders for each atom

     #   Z sym  total        # sym  WBO       # sym  WBO       # sym  WBO
 ---------------------------------------------------------------------------
     1   6 C    3.565 --     2 N    1.277     8 O    1.121    15 H    0.949
                             3 C    0.120
     2   7 N    3.695 --     1 C    1.277     3 C    1.196     6 C    1.058
     3   6 C    3.631 --     2 N    1.196     4 N    1.187    18 H    0.961
                             1 C    0.120
     4   7 N    3.548 --     5 C    1.253     3 C    1.187    25 H    0.923
     5   6 C    3.845 --     4 N    1.253     6 C    1.222    13 N    1.176
     6   6 C    3.908 --     7 C    1.396     5 C    1.222     2 N    1.058
     7   6 C    3.698 --     6 C    1.396     9 N    1.207    17 H    0.953
     8   8 O    2.113 --     1 C    1.121    16 H    0.858
     9   7 N    3.529 --     7 C    1.207    11 C    1.100    10 C    0.981
                            12 O    0.128
    10   6 C    3.927 --     9 N    0.981    19 H    0.973    21 H    0.967
                            20 H    0.964
    11   6 C    3.947 --    12 O    1.696     9 N    1.100    13 N    1.057
    12   8 O    2.051 --    11 C    1.696    13 N    0.130     9 N    0.128
    13   7 N    3.488 --     5 C    1.176    11 C    1.057    14 C    0.980
                            12 O    0.130
    14   6 C    3.931 --    13 N    0.980    23 H    0.970    22 H    0.970
                            24 H    0.965
    15   1 H    0.992 --     1 C    0.949
    16   1 H    0.865 --     8 O    0.858
    17   1 H    0.987 --     7 C    0.953
    18   1 H    0.989 --     3 C    0.961
    19   1 H    0.988 --    10 C    0.973
    20   1 H    0.983 --    10 C    0.964
    21   1 H    0.985 --    10 C    0.967
    22   1 H    0.988 --    14 C    0.970
    23   1 H    0.989 --    14 C    0.970
    24   1 H    0.984 --    14 C    0.965
    25   1 H    0.951 --     4 N    0.923
 ---------------------------------------------------------------------------

molecular dipole:
                 x           y           z       tot (Debye)
 q only:        2.207      -0.565       0.005
   full:        2.742      -0.567      -0.010       7.118

           -------------------------------------------------
          | TOTAL ENERGY              -89.173565696522 Eh   |
          | GRADIENT NORM               0.002914305423 Eh/α |
          | HOMO-LUMO GAP               1.161011289320 eV   |
           -------------------------------------------------

 * finished run on 2024/06/05 at 20:00:29.504
