   * xtb version 6.6.1 (8d0f1dd) compiled by 'conda@1efc2f54142f' on 2023-08-01
          program call               : xtb struc.xyz --opt loose --input .xc1 --gfn2

   ID    Z sym.   atoms
    1    7 N      1, 17
    2    6 C      2-6, 8, 9, 11-16, 18-23, 25, 26, 28-33
    3    8 O      7, 10, 24, 27
    4    1 H      34-72
constraining bond 20 52 to    2.7133300 Å, actual value:    2.1420235 Å

          :  Hamiltonian                  GFN2-xTB          :
 * total energy  :   -99.4624091 Eh     change       -0.4035485E-08 Eh
 * total energy  :   -99.5741847 Eh     change       -0.1117756E+00 Eh
 * total energy  :   -99.7003207 Eh     change       -0.1261360E+00 Eh
 * total energy  :   -99.5273724 Eh     change        0.1729483E+00 Eh
 * total energy  :   -99.7637512 Eh     change       -0.2363788E+00 Eh
 * total energy  :   -99.7783010 Eh     change       -0.1454983E-01 Eh
 * total energy  :   -99.8001111 Eh     change       -0.2181008E-01 Eh
 * total energy  :   -99.8144936 Eh     change       -0.1438254E-01 Eh
 * total energy  :   -99.8286034 Eh     change       -0.1410973E-01 Eh
 * total energy  :   -99.8438180 Eh     change       -0.1521461E-01 Eh
 * total energy  :   -99.9337228 Eh     change       -0.5184915E-04 Eh
 * total energy  :   -99.9337851 Eh     change       -0.6222724E-04 Eh
 * total energy  :   -99.9338494 Eh     change       -0.6436738E-04 Eh
 * total energy  :   -99.9339432 Eh     change       -0.9378678E-04 Eh
 * total energy  :   -99.9340511 Eh     change       -0.1078810E-03 Eh
 * total energy  :   -99.9341540 Eh     change       -0.1028682E-03 Eh
 * total energy  :   -99.9342502 Eh     change       -0.9623614E-04 Eh
 * total energy  :   -99.9343411 Eh     change       -0.9093554E-04 Eh
 * total energy  :   -99.9343626 Eh     change       -0.2148095E-04 Eh
   *** GEOMETRY OPTIMIZATION CONVERGED AFTER 68 ITERATIONS ***

 final structure:
================
72
 xtb: 6.6.1 (8d0f1dd)
N           -1.48605194310621        2.77746687769904        2.25985372655617
C           -1.48009790154963        2.08854750626018        1.21871110711226
C           -2.67568444252128        1.86490040895734        0.33468202152032
C           -3.12427293244291        0.41420252101668        0.44879609103010
C           -4.05498063415135       -0.09714406806581       -0.45742931465989
C           -4.52538755785796       -1.39576333947519       -0.35756700125570
O           -5.42453972496068       -1.96398026375711       -1.18748293278285
C           -6.00022927055900       -1.19142448194994       -2.21430362290320
C           -4.05362371576338       -2.23226544855321        0.69010608370366
O           -4.57217500396172       -3.47577298145070        0.71655931341975
C           -4.23154531791994       -4.33933238961913        1.77613079516972
C           -3.12660682153629       -1.71916478982654        1.58376686746396
C           -2.66898659020324       -0.41396220084092        1.46326547828364
C           -2.20688253416335        2.15893620954983       -1.11309589089801
C           -1.20122774228726        1.13437426473830       -1.65887800783055
C            0.18199803754999        1.37562624100818       -1.18838345351263
N            1.09576522133447        0.43861752882679       -0.97501308564428
C            2.49233999463218        0.78677658587118       -0.82654997699293
C            3.24543456596930        0.46698005261038       -2.10122030567118
C            4.12774563564909       -0.76826008616285       -2.25202525851864
C            4.74063032945425        0.63908374444677       -2.19013582873210
C            5.51999702702839        0.99134091973101       -1.00831191779663
C            5.56515902436877        0.19560961583186        0.08433487520511
O            6.20869320565662        0.46284625416888        1.23880407634859
C            6.96145715891015        1.64907236122545        1.33624491986933
C            4.97935980414129       -1.14649923259033        0.04839582850891
O            5.20530594198772       -1.85075287963167        1.17768394963803
C            4.89641364292690       -3.22360651669180        1.20097774669627
C            4.38233459958328       -1.60885231872008       -1.07476332096902
C            0.77360729316167       -0.96755346299673       -0.99980791436913
C           -3.88942836387804        2.77409154347586        0.69359767057828
C           -4.47036189817223        2.42167532148234        2.06111937833821
C           -3.56166843473720        4.26396105837157        0.64731104081436
H           -4.43254198135858        0.53540431553091       -1.24314241694570
H           -6.52733299998872       -0.31996027772249       -1.81452396174146
H           -6.71428339363765       -1.84769017206393       -2.70787030675350
H           -5.24896184601927       -0.86494504519816       -2.94104122952838
H           -4.51688597491680       -3.91653583873407        2.74400624524133
H           -4.79619486116427       -5.25295659364819        1.60070621522586
H           -3.16163876906183       -4.57018177522304        1.77913405328393
H           -2.76096630163221       -2.32622108891535        2.39593109261477
H           -1.96951431936121       -0.04195684151221        2.19562737599436
H           -3.07882237805129        2.17469390978559       -1.76525029322939
H           -1.75752052527552        3.15175191051760       -1.14643383805041
H           -1.53976482352248        0.12438034169575       -1.42707272337940
H           -1.19230276900803        1.23239759480878       -2.75313643905816
H           -0.57320660555984        1.59586713639686        0.81287761180770
H            0.53208793511844        2.39747446545754       -1.17993346727837
H            2.91885141058061        0.22826361789235        0.01135696252141
H            2.57366643285335        1.85419288188441       -0.60488119580833
H            2.69448186700103        0.74688304147415       -2.99201523588795
H            4.09247728070052       -1.16641437022352       -2.99345735471514
H            5.10638747862435        1.07070105309871       -3.11399487037627
H            6.08700355310907        1.90575895988098       -1.05729335042129
H            6.33541926799590        2.53455636482450        1.18740086925662
H            7.78258755222971        1.65913706230382        0.61385179850036
H            7.36730921238452        1.65705182442058        2.34565925723649
H            5.21790296732469       -3.57909110426635        2.17791293881382
H            3.82039644311426       -3.39587762707218        1.08770775576619
H            5.43540554130234       -3.76860270403992        0.42083090164989
H            4.11107142996381       -2.64891307924998       -1.16866112438590
H            0.52712971471918       -1.30008256836089       -2.01047921708818
H           -0.07693716433798       -1.17465648310605       -0.34724143392211
H            1.63327695169265       -1.53340073660735       -0.64976619268077
H           -4.65837212890846        2.57196055535728       -0.06115179311041
H           -3.73257841750751        2.60237322329054        2.83627902347781
H           -4.77943155842590        1.38023872154076        2.10238938970262
H           -5.33935780821492        3.04393386541537        2.25795403878594
H           -2.79716681165617        4.50405607459670        1.37985224438054
H           -3.22729214385700        4.57888548806243       -0.33763805422255
H           -4.45548611097030        4.83234790345763        0.89068022361804
H           -0.61487040186673        2.87954096182026        2.77071820557893

          :  Hamiltonian                  GFN2-xTB          :
         :: total energy             -99.934362624225 Eh    ::
         :: gradient norm              0.001645837469 Eh/a0 ::
         :: HOMO-LUMO gap              1.718793158323 eV    ::
         :: SCC energy              -100.754929297186 Eh    ::
         :: -> dispersion             -0.075719595447 Eh    ::
         :: repulsion energy           1.443812424527 Eh    ::

    * Orbital Energies and Occupations

         #    Occupation            Energy/Eh            Energy/eV
      -------------------------------------------------------------
         1        2.0000           -0.8122202             -22.1016
       ...           ...                  ...                  ...
        78        1.9989           -0.5369686             -14.6117
        79        1.9982           -0.5292039             -14.4004
        80        1.9981           -0.5284017             -14.3785
        81        1.9975           -0.5240043             -14.2589
        82        1.9971           -0.5217485             -14.1975
        83        1.9957           -0.5154041             -14.0249
        84        1.9950           -0.5129071             -13.9569
        85        1.9939           -0.5098627             -13.8741
        86        1.9790           -0.4901854             -13.3386
        87        1.9596           -0.4796439             -13.0518
        88        1.9366           -0.4723188             -12.8524
        89        1.8813           -0.4619242             -12.5696
        90        1.8575           -0.4588316             -12.4854 (HOMO)
        91        0.3888           -0.3956672             -10.7667 (LUMO)
        92        0.0142           -0.3399754              -9.2512
        93        0.0105           -0.3350914              -9.1183
        94        0.0031           -0.3157666              -8.5924
        95        0.0026           -0.3127047              -8.5091
        96        0.0001           -0.2576254              -7.0103
        97        0.0000           -0.1900534              -5.1716
        98        0.0000           -0.1580865              -4.3018
        99                         -0.1310066              -3.5649
       100                         -0.0714753              -1.9449
       101                         -0.0693258              -1.8864
       ...                                ...                  ...
       171                          0.8580879              23.3498
      -------------------------------------------------------------
                  HL-Gap            0.0631645 Eh            1.7188 eV

     #   Z          covCN         q      C6AA      α(0)
     1   7 N        1.774    -0.267    27.764     7.803
     2   6 C        2.826     0.102    25.730     8.312
     3   6 C        3.907     0.006    20.412     6.422
     4   6 C        2.974     0.002    27.970     8.675
     5   6 C        2.920    -0.080    29.995     8.981
     6   6 C        2.862     0.130    25.149     8.220
     7   8 O        1.706    -0.229    17.795     5.695
     8   6 C        3.644     0.028    20.449     6.500
     9   6 C        2.864     0.130    25.155     8.221
    10   8 O        1.706    -0.227    17.764     5.691
    11   6 C        3.645     0.027    20.462     6.501
    12   6 C        2.914    -0.072    29.804     8.952
    13   6 C        2.921    -0.051    29.272     8.872
    14   6 C        3.813    -0.066    21.764     6.640
    15   6 C        3.802    -0.068    21.798     6.647
    16   6 C        2.843     0.006    27.871     8.652
    17   7 N        2.731     0.011    21.063     6.816
    18   6 C        3.754    -0.020    20.992     6.533
    19   6 C        3.859    -0.039    21.234     6.553
    20   6 C        3.865    -0.041    21.264     6.557
    21   6 C        3.864    -0.020    20.891     6.500
    22   6 C        2.897    -0.088    30.200     9.010
    23   6 C        2.854     0.129    25.162     8.222
    24   8 O        1.706    -0.231    17.824     5.700
    25   6 C        3.647     0.025    20.488     6.504
    26   6 C        2.851     0.128    25.194     8.227
    27   8 O        1.706    -0.235    17.896     5.712
    28   6 C        3.645     0.027    20.446     6.499
    29   6 C        2.897    -0.095    30.399     9.040
    30   6 C        3.700    -0.070    22.008     6.709
    31   6 C        3.853    -0.007    20.671     6.467
    32   6 C        3.756    -0.119    22.829     6.813
    33   6 C        3.755    -0.118    22.823     6.812
    34   1 H        0.926     0.052     2.300     2.372
    35   1 H        0.924     0.054     2.273     2.358
    36   1 H        0.925     0.081     1.964     2.192
    37   1 H        0.924     0.047     2.357     2.401
    38   1 H        0.924     0.056     2.250     2.346
    39   1 H        0.925     0.081     1.965     2.192
    40   1 H        0.924     0.049     2.328     2.386
    41   1 H        0.926     0.054     2.276     2.359
    42   1 H        0.926     0.040     2.442     2.444
    43   1 H        0.925     0.059     2.207     2.323
    44   1 H        0.924     0.054     2.273     2.358
    45   1 H        0.925     0.068     2.108     2.271
    46   1 H        0.923     0.080     1.981     2.201
    47   1 H        0.922     0.006     2.950     2.686
    48   1 H        0.926     0.070     2.081     2.256
    49   1 H        0.924     0.076     2.025     2.226
    50   1 H        0.924     0.068     2.102     2.267
    51   1 H        0.925     0.047     2.360     2.402
    52   1 H        0.930     0.089     1.888     2.149
    53   1 H        0.925     0.055     2.256     2.349
    54   1 H        0.926     0.057     2.229     2.334
    55   1 H        0.924     0.048     2.344     2.394
    56   1 H        0.924     0.056     2.251     2.347
    57   1 H        0.925     0.081     1.966     2.193
    58   1 H        0.925     0.081     1.971     2.196
    59   1 H        0.924     0.042     2.429     2.437
    60   1 H        0.924     0.054     2.270     2.356
    61   1 H        0.926     0.047     2.352     2.398
    62   1 H        0.924     0.078     2.003     2.213
    63   1 H        0.924     0.077     2.008     2.216
    64   1 H        0.925     0.084     1.934     2.175
    65   1 H        0.924     0.037     2.485     2.465
    66   1 H        0.925     0.068     2.103     2.268
    67   1 H        0.925     0.036     2.503     2.474
    68   1 H        0.925     0.052     2.297     2.370
    69   1 H        0.925     0.061     2.183     2.310
    70   1 H        0.925     0.034     2.534     2.489
    71   1 H        0.925     0.055     2.264     2.353
    72   1 H        0.860     0.157     1.352     1.821

Wiberg/Mayer (AO) data.
largest (>0.10) Wiberg bond orders for each atom

     #   Z sym  total        # sym  WBO       # sym  WBO       # sym  WBO
 ---------------------------------------------------------------------------
     1   7 N    3.041 --     2 C    1.957    72 H    0.941
     2   6 C    3.928 --     1 N    1.957     3 C    0.995    47 H    0.899
     3   6 C    3.975 --     2 C    0.995     4 C    0.967    14 C    0.959
                            31 C    0.942
     4   6 C    3.945 --    13 C    1.412     5 C    1.370     3 C    0.967
     5   6 C    3.961 --     6 C    1.400     4 C    1.370    34 H    0.957
     6   6 C    3.902 --     5 C    1.400     9 C    1.221     7 O    1.100
     7   8 O    2.253 --     6 C    1.100     8 C    0.978
     8   6 C    3.932 --     7 O    0.978    36 H    0.977    37 H    0.973
                            35 H    0.973
     9   6 C    3.898 --    12 C    1.389     6 C    1.221    10 O    1.103
    10   8 O    2.251 --     9 C    1.103    11 C    0.977
    11   6 C    3.930 --    10 O    0.977    39 H    0.977    40 H    0.973
                            38 H    0.973
    12   6 C    3.961 --    13 C    1.409     9 C    1.389    41 H    0.964
    13   6 C    3.952 --     4 C    1.412    12 C    1.409    42 H    0.963
    14   6 C    3.979 --    15 C    0.990    44 H    0.971    43 H    0.969
                             3 C    0.959
    15   6 C    3.986 --    16 C    1.058    14 C    0.990    45 H    0.957
                            46 H    0.923
    16   6 C    3.597 --    17 N    1.407    15 C    1.058    48 H    0.957
    17   7 N    3.481 --    16 C    1.407    30 C    0.998    18 C    0.982
    18   6 C    3.957 --    19 C    0.990    17 N    0.982    50 H    0.961
                            49 H    0.952
    19   6 C    3.886 --    18 C    0.990    51 H    0.968    21 C    0.916
                            20 C    0.904
    20   6 C    3.938 --    29 C    1.091    52 H    0.975    19 C    0.904
                            21 C    0.886
    21   6 C    3.939 --    22 C    1.094    53 H    0.966    19 C    0.916
                            20 C    0.886
    22   6 C    3.903 --    23 C    1.611    21 C    1.094    54 H    0.960
                            24 O    0.107
    23   6 C    3.911 --    22 C    1.611    24 O    1.098    26 C    1.066
    24   8 O    2.258 --    23 C    1.098    25 C    0.978    22 C    0.107
    25   6 C    3.932 --    24 O    0.978    57 H    0.977    55 H    0.974
                            56 H    0.973
    26   6 C    3.915 --    29 C    1.612    27 O    1.093    23 C    1.066
    27   8 O    2.257 --    26 C    1.093    28 C    0.979    29 C    0.108
    28   6 C    3.935 --    27 O    0.979    58 H    0.977    59 H    0.974
                            60 H    0.974
    29   6 C    3.910 --    26 C    1.612    20 C    1.091    61 H    0.960
                            27 O    0.108
    30   6 C    3.957 --    17 N    0.998    64 H    0.975    63 H    0.967
                            62 H    0.966
    31   6 C    3.972 --    33 C    1.009    32 C    1.008    65 H    0.960
                             3 C    0.942
    32   6 C    3.979 --    31 C    1.008    67 H    0.982    68 H    0.981
                            66 H    0.974
    33   6 C    3.982 --    31 C    1.009    70 H    0.982    71 H    0.980
                            69 H    0.976
    34   1 H    0.996 --     5 C    0.957
    35   1 H    0.993 --     8 C    0.973
    36   1 H    0.993 --     8 C    0.977
    37   1 H    0.994 --     8 C    0.973
    38   1 H    0.992 --    11 C    0.973
    39   1 H    0.993 --    11 C    0.977
    40   1 H    0.993 --    11 C    0.973
    41   1 H    0.995 --    12 C    0.964
    42   1 H    0.998 --    13 C    0.963
    43   1 H    0.995 --    14 C    0.969
    44   1 H    0.996 --    14 C    0.971
    45   1 H    0.993 --    15 C    0.957
    46   1 H    0.968 --    15 C    0.923
    47   1 H    0.987 --     2 C    0.899
    48   1 H    0.995 --    16 C    0.957
    49   1 H    0.989 --    18 C    0.952
    50   1 H    0.994 --    18 C    0.961
    51   1 H    0.996 --    19 C    0.968
    52   1 H    0.990 --    20 C    0.975
    53   1 H    0.993 --    21 C    0.966
    54   1 H    0.995 --    22 C    0.960
    55   1 H    0.995 --    25 C    0.974
    56   1 H    0.993 --    25 C    0.973
    57   1 H    0.993 --    25 C    0.977
    58   1 H    0.993 --    28 C    0.977
    59   1 H    0.996 --    28 C    0.974
    60   1 H    0.994 --    28 C    0.974
    61   1 H    0.996 --    29 C    0.960
    62   1 H    0.984 --    30 C    0.966
    63   1 H    0.988 --    30 C    0.967
    64   1 H    0.993 --    30 C    0.975
    65   1 H    0.992 --    31 C    0.960
    66   1 H    0.991 --    32 C    0.974
    67   1 H    0.996 --    32 C    0.982
    68   1 H    0.994 --    32 C    0.981
    69   1 H    0.993 --    33 C    0.976
    70   1 H    0.997 --    33 C    0.982
    71   1 H    0.994 --    33 C    0.980
    72   1 H    0.970 --     1 N    0.941
 ---------------------------------------------------------------------------

molecular dipole:
                 x           y           z       tot (Debye)
 q only:        0.719       0.116      -1.192
   full:        1.160       0.046      -1.510       4.841

           -------------------------------------------------
          | TOTAL ENERGY              -99.934362624225 Eh   |
          | GRADIENT NORM               0.001645837469 Eh/α |
          | HOMO-LUMO GAP               1.718793158323 eV   |
           -------------------------------------------------

 * finished run on 2024/04/06 at 11:17:00.023
