   * xtb version 6.6.1 (8d0f1dd) compiled by 'conda@1efc2f54142f' on 2023-08-01
          program call               : xtb xtbopt.xyz --opt crude --input .xc2 --gfn2

   ID    Z sym.   atoms
    1    7 N      1, 17
    2    6 C      2-6, 8, 9, 11-16, 18-23, 25, 26, 28-33
    3    8 O      7, 10, 24, 27
    4    1 H      34-72
########################################################################
[WARNING] Please study the warnings concerning your input carefully
-1- readin_getIntValue: could not parse ''
########################################################################

          :  Hamiltonian                  GFN2-xTB          :
 * total energy  :   -99.3093011 Eh     change       -0.2742695E-11 Eh
 * total energy  :   -99.3684452 Eh     change       -0.5914417E-01 Eh
 * total energy  :   -99.3695431 Eh     change       -0.1097860E-02 Eh
 * total energy  :   -99.3699777 Eh     change       -0.4345851E-03 Eh
   *** GEOMETRY OPTIMIZATION CONVERGED AFTER 4 ITERATIONS ***

 final structure:
================
72
 xtb: 6.6.1 (8d0f1dd)
N           -1.48772328489512        2.78191204675294        2.25835850435995
C           -1.48180443705871        2.09063756172709        1.21861051849693
C           -2.67735356292984        1.86625900973751        0.33460778010626
C           -3.12444444057562        0.41505598189930        0.44814097245810
C           -4.05549788767119       -0.09683572173594       -0.45743327476890
C           -4.52423387938711       -1.39605438026222       -0.35758404988588
O           -5.42365810107831       -1.96532714905806       -1.18630827422779
C           -6.00275009993394       -1.19368909646331       -2.21176831332827
C           -4.05034659775037       -2.23254385395587        0.68916141394018
O           -4.56801270678095       -3.47634729609952        0.71586076418402
C           -4.22660945590431       -4.33925995769223        1.77566495499634
C           -3.12261295223546       -1.71907262132922        1.58181646145664
C           -2.66684921538129       -0.41323210579695        1.46147002197027
C           -2.20971495358012        2.16139530664536       -1.11314404616595
C           -1.20399749428816        1.13742989289022       -1.66024586205350
C            0.17881806162260        1.38111495529393       -1.19125650365717
N            1.09325921757870        0.44613996184364       -0.97154712060117
C            2.48930539150246        0.79770204328733       -0.82315419616548
C            3.24358666494668        0.47021628578659       -2.09582294431111
C            4.12723758268795       -0.75398073231637       -2.21819714362272
C            4.74339907091891        0.64120773125394       -2.18129231082842
C            5.51980476138305        0.99409788049010       -0.99685113939734
C            5.56902104251640        0.19347321409096        0.09268830609825
O            6.21344046639689        0.45986203963273        1.24690296638619
C            6.96284967986638        1.64825373899409        1.34537205166490
C            4.98471369948745       -1.14994221931818        0.05651110752879
O            5.21346566985043       -1.85504544983493        1.18488562999810
C            4.90038400732560       -3.22712533121513        1.20475946594096
C            4.38327819799307       -1.61319414164836       -1.06571290652577
C            0.77538317878780       -0.96060657423913       -1.00108018039394
C           -3.89164514498096        2.77418498816763        0.69424646848101
C           -4.46950911705213        2.42277484186161        2.06315427208064
C           -3.56564828469569        4.26437943277140        0.64480587959136
H           -4.43462099229818        0.53552631757785       -1.24256663476748
H           -6.53283162564485       -0.32463763582666       -1.81053719552749
H           -6.71471374889227       -1.85204153882533       -2.70558295558848
H           -5.25334070669513       -0.86345607828806       -2.93871382288354
H           -4.50888321296856       -3.91472487898168        2.74363744205356
H           -4.79332472549143       -5.25203017186078        1.60264388728864
H           -3.15709953688880       -4.57205575293605        1.77643191172259
H           -2.75496056157007       -2.32621563220296        2.39298228036000
H           -1.96691029965313       -0.04080524887255        2.19315823214365
H           -3.08209628793115        2.17770162318125       -1.76460432965625
H           -1.76028314915806        3.15420635717706       -1.14593426689441
H           -1.54064035180941        0.12710991203429       -1.42723817450009
H           -1.19715798749152        1.23492275998676       -2.75444888448088
H           -0.57521376564489        1.59660194130985        0.81481958379442
H            0.52728230148511        2.40347831973020       -1.18267979566490
H            2.91521805649572        0.24429402935051        0.01849454782856
H            2.56656689345698        1.86639670625654       -0.60601176027113
H            2.69693928434015        0.74568996140585       -2.98932263825389
H            4.08112084104998       -1.26729773118874       -3.16569565348639
H            5.11069014510223        1.06852753487879       -3.10558416227404
H            6.08565081068919        1.90968841481680       -1.04274986851935
H            6.33282830965707        2.53205243336593        1.20302985652886
H            7.78010520073989        1.66418846015684        0.61844030345047
H            7.37449581179946        1.65397361714120        2.35247571765742
H            5.21378383880190       -3.58591701611114        2.18294333223801
H            3.82472113664938       -3.39533707839275        1.08339322866793
H            5.44269359501654       -3.77188551318232        0.42683373881666
H            4.10587347599302       -2.65019059535820       -1.16272109765297
H            0.52932289095189       -1.28993866919206       -2.01284416155043
H           -0.07410008168215       -1.17288173349638       -0.34870098723250
H            1.63735291092487       -1.52489150497866       -0.65462225191136
H           -4.66150756271459        2.56992671448101       -0.05887673066775
H           -3.73090218871099        2.60635822755990        2.83677067455725
H           -4.77597731050447        1.38063774334039        2.10645232944158
H           -5.33960180076507        3.04326512904101        2.26048448749483
H           -2.79692119059732        4.50586928008839        1.37239033468311
H           -3.23785625647393        4.57873776727636       -0.34249275056179
H           -4.45849590424001        4.83197648869452        0.89334389612654
H           -0.61622573501807        2.88347628119122        2.76884790627836

          :  Hamiltonian                  GFN2-xTB          :
         :: total energy             -99.369977669969 Eh    ::
         :: gradient norm              0.004474585471 Eh/a0 ::
         :: HOMO-LUMO gap              1.717316660983 eV    ::
         :: SCC energy              -100.731852949612 Eh    ::
         :: -> dispersion             -0.075679177099 Eh    ::
         :: repulsion energy           1.360061634509 Eh    ::

    * Orbital Energies and Occupations

         #    Occupation            Energy/Eh            Energy/eV
      -------------------------------------------------------------
         1        2.0000           -0.8125301             -22.1101
       ...           ...                  ...                  ...
        78        1.9989           -0.5369832             -14.6121
        79        1.9982           -0.5292513             -14.4017
        80        1.9981           -0.5284524             -14.3799
        81        1.9975           -0.5240885             -14.2612
        82        1.9971           -0.5218300             -14.1997
        83        1.9957           -0.5154698             -14.0266
        84        1.9950           -0.5129609             -13.9584
        85        1.9939           -0.5099297             -13.8759
        86        1.9790           -0.4902617             -13.3407
        87        1.9595           -0.4797244             -13.0540
        88        1.9363           -0.4723596             -12.8536
        89        1.8818           -0.4621082             -12.5746
        90        1.8571           -0.4589009             -12.4873 (HOMO)
        91        0.3891           -0.3957907             -10.7700 (LUMO)
        92        0.0142           -0.3400653              -9.2536
        93        0.0106           -0.3353884              -9.1264
        94        0.0031           -0.3158475              -8.5946
        95        0.0026           -0.3127855              -8.5113
        96        0.0001           -0.2575646              -7.0087
        97        0.0000           -0.1901335              -5.1738
        98        0.0000           -0.1565504              -4.2600
        99                         -0.1286515              -3.5008
       100                         -0.0707259              -1.9246
       101                         -0.0691256              -1.8810
       ...                                ...                  ...
       171                          0.5775421              15.7157
      -------------------------------------------------------------
                  HL-Gap            0.0631102 Eh            1.7173 eV

     #   Z          covCN         q      C6AA      α(0)
     1   7 N        1.774    -0.268    27.768     7.803
     2   6 C        2.826     0.102    25.731     8.312
     3   6 C        3.908     0.006    20.412     6.422
     4   6 C        2.974     0.002    27.970     8.675
     5   6 C        2.920    -0.080    29.994     8.981
     6   6 C        2.862     0.130    25.149     8.220
     7   8 O        1.706    -0.229    17.793     5.695
     8   6 C        3.644     0.028    20.449     6.500
     9   6 C        2.864     0.130    25.154     8.221
    10   8 O        1.706    -0.227    17.763     5.690
    11   6 C        3.645     0.027    20.462     6.501
    12   6 C        2.914    -0.072    29.804     8.952
    13   6 C        2.921    -0.051    29.272     8.872
    14   6 C        3.813    -0.066    21.763     6.640
    15   6 C        3.802    -0.068    21.799     6.647
    16   6 C        2.843     0.007    27.868     8.652
    17   7 N        2.731     0.011    21.068     6.817
    18   6 C        3.754    -0.019    20.977     6.531
    19   6 C        3.859    -0.038    21.208     6.549
    20   6 C        3.865    -0.022    20.924     6.505
    21   6 C        3.865    -0.019    20.871     6.497
    22   6 C        2.897    -0.087    30.182     9.008
    23   6 C        2.853     0.130    25.158     8.221
    24   8 O        1.706    -0.231    17.826     5.700
    25   6 C        3.647     0.025    20.485     6.504
    26   6 C        2.853     0.128    25.184     8.225
    27   8 O        1.706    -0.234    17.886     5.710
    28   6 C        3.646     0.027    20.446     6.498
    29   6 C        2.897    -0.092    30.296     9.025
    30   6 C        3.700    -0.070    22.006     6.708
    31   6 C        3.853    -0.007    20.671     6.467
    32   6 C        3.756    -0.119    22.829     6.813
    33   6 C        3.755    -0.118    22.824     6.812
    34   1 H        0.926     0.052     2.300     2.372
    35   1 H        0.924     0.054     2.272     2.357
    36   1 H        0.925     0.081     1.964     2.192
    37   1 H        0.924     0.047     2.356     2.401
    38   1 H        0.924     0.056     2.250     2.346
    39   1 H        0.925     0.081     1.964     2.192
    40   1 H        0.924     0.049     2.327     2.386
    41   1 H        0.926     0.054     2.276     2.359
    42   1 H        0.926     0.040     2.443     2.444
    43   1 H        0.925     0.059     2.206     2.323
    44   1 H        0.924     0.054     2.272     2.357
    45   1 H        0.925     0.068     2.108     2.270
    46   1 H        0.923     0.080     1.980     2.201
    47   1 H        0.922     0.006     2.952     2.687
    48   1 H        0.926     0.070     2.082     2.256
    49   1 H        0.924     0.075     2.030     2.228
    50   1 H        0.924     0.068     2.103     2.268
    51   1 H        0.925     0.049     2.335     2.389
    52   1 H        0.926     0.054     2.268     2.355
    53   1 H        0.925     0.057     2.234     2.337
    54   1 H        0.926     0.057     2.229     2.335
    55   1 H        0.924     0.048     2.345     2.395
    56   1 H        0.924     0.055     2.253     2.347
    57   1 H        0.925     0.081     1.965     2.192
    58   1 H        0.925     0.081     1.969     2.194
    59   1 H        0.924     0.042     2.428     2.437
    60   1 H        0.924     0.054     2.266     2.354
    61   1 H        0.926     0.050     2.325     2.384
    62   1 H        0.924     0.078     2.002     2.213
    63   1 H        0.924     0.077     2.006     2.215
    64   1 H        0.925     0.084     1.935     2.175
    65   1 H        0.924     0.037     2.484     2.465
    66   1 H        0.925     0.068     2.102     2.267
    67   1 H        0.925     0.036     2.504     2.474
    68   1 H        0.925     0.052     2.297     2.370
    69   1 H        0.925     0.061     2.183     2.311
    70   1 H        0.925     0.034     2.533     2.489
    71   1 H        0.925     0.055     2.263     2.352
    72   1 H        0.860     0.157     1.352     1.822

Wiberg/Mayer (AO) data.
largest (>0.10) Wiberg bond orders for each atom

     #   Z sym  total        # sym  WBO       # sym  WBO       # sym  WBO
 ---------------------------------------------------------------------------
     1   7 N    3.040 --     2 C    1.957    72 H    0.941
     2   6 C    3.929 --     1 N    1.957     3 C    0.995    47 H    0.900
     3   6 C    3.975 --     2 C    0.995     4 C    0.967    14 C    0.959
                            31 C    0.942
     4   6 C    3.945 --    13 C    1.412     5 C    1.370     3 C    0.967
     5   6 C    3.961 --     6 C    1.400     4 C    1.370    34 H    0.957
     6   6 C    3.902 --     5 C    1.400     9 C    1.221     7 O    1.100
     7   8 O    2.253 --     6 C    1.100     8 C    0.978
     8   6 C    3.932 --     7 O    0.978    36 H    0.977    37 H    0.973
                            35 H    0.973
     9   6 C    3.898 --    12 C    1.389     6 C    1.221    10 O    1.104
    10   8 O    2.252 --     9 C    1.104    11 C    0.977
    11   6 C    3.930 --    10 O    0.977    39 H    0.977    38 H    0.973
                            40 H    0.973
    12   6 C    3.961 --    13 C    1.409     9 C    1.389    41 H    0.964
    13   6 C    3.952 --     4 C    1.412    12 C    1.409    42 H    0.963
    14   6 C    3.979 --    15 C    0.990    44 H    0.971    43 H    0.969
                             3 C    0.959
    15   6 C    3.986 --    16 C    1.058    14 C    0.990    45 H    0.957
                            46 H    0.923
    16   6 C    3.597 --    17 N    1.407    15 C    1.058    48 H    0.956
    17   7 N    3.481 --    16 C    1.407    30 C    0.998    18 C    0.982
    18   6 C    3.957 --    19 C    0.989    17 N    0.982    50 H    0.961
                            49 H    0.953
    19   6 C    3.885 --    18 C    0.989    51 H    0.968    20 C    0.910
                            21 C    0.909
    20   6 C    3.940 --    29 C    1.094    52 H    0.967    19 C    0.910
                            21 C    0.890
    21   6 C    3.937 --    22 C    1.093    53 H    0.966    19 C    0.909
                            20 C    0.890
    22   6 C    3.904 --    23 C    1.610    21 C    1.093    54 H    0.960
                            24 O    0.107
    23   6 C    3.911 --    22 C    1.610    24 O    1.098    26 C    1.067
    24   8 O    2.258 --    23 C    1.098    25 C    0.977    22 C    0.107
    25   6 C    3.932 --    24 O    0.977    57 H    0.977    55 H    0.974
                            56 H    0.973
    26   6 C    3.915 --    29 C    1.609    27 O    1.094    23 C    1.067
    27   8 O    2.258 --    26 C    1.094    28 C    0.979    29 C    0.108
    28   6 C    3.935 --    27 O    0.979    58 H    0.977    59 H    0.974
                            60 H    0.974
    29   6 C    3.910 --    26 C    1.609    20 C    1.094    61 H    0.960
                            27 O    0.108
    30   6 C    3.957 --    17 N    0.998    64 H    0.975    63 H    0.967
                            62 H    0.966
    31   6 C    3.972 --    33 C    1.009    32 C    1.008    65 H    0.960
                             3 C    0.942
    32   6 C    3.979 --    31 C    1.008    67 H    0.982    68 H    0.981
                            66 H    0.974
    33   6 C    3.982 --    31 C    1.009    70 H    0.982    71 H    0.980
                            69 H    0.976
    34   1 H    0.996 --     5 C    0.957
    35   1 H    0.993 --     8 C    0.973
    36   1 H    0.993 --     8 C    0.977
    37   1 H    0.994 --     8 C    0.973
    38   1 H    0.992 --    11 C    0.973
    39   1 H    0.993 --    11 C    0.977
    40   1 H    0.993 --    11 C    0.973
    41   1 H    0.995 --    12 C    0.964
    42   1 H    0.998 --    13 C    0.963
    43   1 H    0.995 --    14 C    0.969
    44   1 H    0.996 --    14 C    0.971
    45   1 H    0.993 --    15 C    0.957
    46   1 H    0.968 --    15 C    0.923
    47   1 H    0.987 --     2 C    0.900
    48   1 H    0.995 --    16 C    0.956
    49   1 H    0.989 --    18 C    0.953
    50   1 H    0.994 --    18 C    0.961
    51   1 H    0.996 --    19 C    0.968
    52   1 H    0.994 --    20 C    0.967
    53   1 H    0.992 --    21 C    0.966
    54   1 H    0.995 --    22 C    0.960
    55   1 H    0.995 --    25 C    0.974
    56   1 H    0.993 --    25 C    0.973
    57   1 H    0.993 --    25 C    0.977
    58   1 H    0.993 --    28 C    0.977
    59   1 H    0.996 --    28 C    0.974
    60   1 H    0.994 --    28 C    0.974
    61   1 H    0.996 --    29 C    0.960
    62   1 H    0.984 --    30 C    0.966
    63   1 H    0.988 --    30 C    0.967
    64   1 H    0.993 --    30 C    0.975
    65   1 H    0.992 --    31 C    0.960
    66   1 H    0.991 --    32 C    0.974
    67   1 H    0.996 --    32 C    0.982
    68   1 H    0.994 --    32 C    0.981
    69   1 H    0.993 --    33 C    0.976
    70   1 H    0.997 --    33 C    0.982
    71   1 H    0.994 --    33 C    0.980
    72   1 H    0.970 --     1 N    0.941
 ---------------------------------------------------------------------------

molecular dipole:
                 x           y           z       tot (Debye)
 q only:        0.710       0.142      -1.143
   full:        1.150       0.066      -1.482       4.770

           -------------------------------------------------
          | TOTAL ENERGY              -99.369977669969 Eh   |
          | GRADIENT NORM               0.004474585471 Eh/α |
          | HOMO-LUMO GAP               1.717316660983 eV   |
           -------------------------------------------------

 * finished run on 2024/04/06 at 11:17:00.991
