   * xtb version 6.6.1 (8d0f1dd) compiled by 'conda@1efc2f54142f' on 2023-08-01
          program call               : xtb struc.xyz --opt loose --input .xc1 --gfn2

   ID    Z sym.   atoms
    1    6 C      1, 3, 5-7, 10, 11, 14
    2    7 N      2, 4, 9, 13
    3    8 O      8, 12
    4    1 H      15-25
constraining bond 7 12 to    5.7600000 Å, actual value:    3.5721419 Å

          :  Hamiltonian                  GFN2-xTB          :
 * total energy  :   -33.7132029 Eh     change       -0.2401990E-09 Eh
 * total energy  :   -37.2528947 Eh     change       -0.3539692E+01 Eh
 * total energy  :   -39.8558356 Eh     change       -0.2602941E+01 Eh
 * total energy  :   -41.3402421 Eh     change       -0.1484407E+01 Eh
 * total energy  :   -41.8430111 Eh     change       -0.5027690E+00 Eh
 * total energy  :   -41.8973144 Eh     change       -0.5430330E-01 Eh
 * total energy  :   -41.9106322 Eh     change       -0.1331778E-01 Eh
 * total energy  :   -41.9312582 Eh     change       -0.2062608E-01 Eh
 * total energy  :   -41.9386800 Eh     change       -0.7421792E-02 Eh
 * total energy  :   -41.9469084 Eh     change       -0.8228385E-02 Eh
 * total energy  :   -42.1953652 Eh     change       -0.7514420E-04 Eh
 * total energy  :   -42.1954056 Eh     change       -0.4039954E-04 Eh
 * total energy  :   -42.1954954 Eh     change       -0.8983279E-04 Eh
 * total energy  :   -42.1955931 Eh     change       -0.9767064E-04 Eh
 * total energy  :   -42.1956788 Eh     change       -0.8575256E-04 Eh
 * total energy  :   -42.1957532 Eh     change       -0.7436456E-04 Eh
 * total energy  :   -42.1958137 Eh     change       -0.6045827E-04 Eh
 * total energy  :   -42.1958719 Eh     change       -0.5823508E-04 Eh
 * total energy  :   -42.1959007 Eh     change       -0.2884429E-04 Eh
   *** GEOMETRY OPTIMIZATION CONVERGED AFTER 131 ITERATIONS ***

 final structure:
================
25
 xtb: 6.6.1 (8d0f1dd)
C            3.93801360258338        0.30385371150608       -0.16363119701548
N            2.50722374421201        0.21929591716842       -0.23170539557528
C            1.71338832777929        0.65947353425303       -1.20659489190048
N            0.44559694671081        0.42875670782682       -0.95405190552258
C            0.32572783829743       -0.19472544240092        0.23517037569165
C            1.69184342435225       -0.35878924140768        0.76766055635319
C            2.35363258304632       -0.86380211981733        1.83820068772170
O            2.89607567416262       -1.29367578920770        2.76765457301803
N           -2.11490549765744        0.32141814558321       -1.12821270825101
C           -3.29149938211363        0.63574054022265       -1.88713192380481
C           -2.18903161023570       -0.29424373197143        0.06111243963452
O           -3.24645054530634       -0.62496684875081        0.56343209251932
N           -0.90329569756610       -0.54409225761091        0.71864052329337
C           -0.97344053582725       -1.22498333741765        1.99439366230658
H            4.37307767853118       -0.68524959544976        0.00073602119030
H            4.31594122950974        0.70688713391806       -1.10202674206276
H            4.24714054270253        0.96111383318812        0.65403371720510
H            2.05666409025798        1.14778793527351       -2.09842029726405
H           -3.28991229583930        1.69451300420531       -2.15603661202838
H           -3.31777220446705        0.04688402024685       -2.80886682249259
H           -4.17769064820108        0.40769043923423       -1.29275102661746
H           -0.57146769949292       -0.59634219954584        2.79206804356087
H           -0.41357113207777       -2.16199195605368        1.96253561693811
H           -2.02155929318254       -1.44010283225472        2.20379082036055
H           -1.19329762608777        0.56778897086642       -1.49882798935575

          :  Hamiltonian                  GFN2-xTB          :
         :: total energy             -42.195900740366 Eh    ::
         :: gradient norm              0.002794562296 Eh/a0 ::
         :: HOMO-LUMO gap              2.479295842412 eV    ::
         :: SCC energy               -42.722385072547 Eh    ::
         :: -> dispersion             -0.021150814677 Eh    ::
         :: repulsion energy           0.526222631567 Eh    ::

    * Orbital Energies and Occupations

         #    Occupation            Energy/Eh            Energy/eV
      -------------------------------------------------------------
         1        2.0000           -0.9246515             -25.1610
       ...           ...                  ...                  ...
        25        1.9984           -0.6647801             -18.0896
        26        1.9981           -0.6614379             -17.9986
        27        1.9978           -0.6576664             -17.8960
        28        1.9961           -0.6437708             -17.5179
        29        1.9948           -0.6369934             -17.3335
        30        1.9892           -0.6196062             -16.8603
        31        1.9856           -0.6127266             -16.6731
        32        1.9824           -0.6079408             -16.5429
        33        1.9779           -0.6024835             -16.3944
        34        1.9338           -0.5759165             -15.6715
        35        1.9254           -0.5729861             -15.5917
        36        1.8567           -0.5566121             -15.1462
        37        1.7944           -0.5472280             -14.8908 (HOMO)
        38        0.3170           -0.4561155             -12.4115 (LUMO)
        39        0.2394           -0.4483794             -12.2010
        40        0.0122           -0.3748078             -10.1990
        41        0.0040           -0.3482072              -9.4752
        42        0.0008           -0.3101683              -8.4401
        43        0.0000           -0.2210440              -6.0149
        44        0.0000           -0.1655522              -4.5049
        45        0.0000           -0.1007812              -2.7424
        46                         -0.0948704              -2.5816
        47                         -0.0786061              -2.1390
        48                         -0.0503437              -1.3699
       ...                                ...                  ...
        67                          0.9078777              24.7046
      -------------------------------------------------------------
                  HL-Gap            0.0911124 Eh            2.4793 eV

     #   Z          covCN         q      C6AA      α(0)
     1   6 C        3.689    -0.075    22.139     6.734
     2   7 N        2.822     0.024    20.829     6.778
     3   6 C        3.042     0.100    25.744     8.322
     4   7 N        1.909    -0.235    26.992     7.703
     5   6 C        3.022     0.142    24.888     8.183
     6   6 C        3.025    -0.006    28.140     8.701
     7   6 C        1.851     0.237    25.633     8.178
     8   8 O        0.856    -0.112    16.691     5.477
     9   7 N        2.684    -0.130    23.818     7.248
    10   6 C        3.693    -0.062    21.872     6.692
    11   6 C        2.693     0.321    21.549     7.597
    12   8 O        0.859    -0.349    20.689     6.098
    13   7 N        2.732    -0.054    22.291     7.012
    14   6 C        3.700    -0.068    21.970     6.703
    15   1 H        0.924     0.096     1.818     2.109
    16   1 H        0.925     0.104     1.748     2.067
    17   1 H        0.924     0.098     1.802     2.099
    18   1 H        0.926     0.104     1.751     2.069
    19   1 H        0.924     0.103     1.755     2.072
    20   1 H        0.924     0.106     1.734     2.059
    21   1 H        0.924     0.121     1.606     1.982
    22   1 H        0.924     0.087     1.908     2.160
    23   1 H        0.924     0.086     1.918     2.166
    24   1 H        0.924     0.129     1.540     1.941
    25   1 H        0.862     0.232     0.955     1.531

Wiberg/Mayer (AO) data.
largest (>0.10) Wiberg bond orders for each atom

     #   Z sym  total        # sym  WBO       # sym  WBO       # sym  WBO
 ---------------------------------------------------------------------------
     1   6 C    3.926 --     2 N    0.998    16 H    0.970    15 H    0.960
                            17 H    0.957
     2   7 N    3.549 --     3 C    1.320     6 C    1.061     1 C    0.998
     3   6 C    3.844 --     4 N    1.422     2 N    1.320    18 H    0.951
     4   7 N    3.053 --     3 C    1.422     5 C    1.298
     5   6 C    3.821 --     4 N    1.298    13 N    1.227     6 C    1.135
     6   6 C    3.843 --     7 C    1.374     5 C    1.135     2 N    1.061
                             8 O    0.115
     7   6 C    3.538 --     8 O    2.074     6 C    1.374
     8   8 O    2.281 --     7 C    2.074     6 C    0.115
     9   7 N    3.346 --    11 C    1.263    10 C    1.014    25 H    0.849
                            12 O    0.144
    10   6 C    3.875 --     9 N    1.014    21 H    0.953    19 H    0.944
                            20 H    0.936
    11   6 C    3.936 --    12 O    1.642     9 N    1.263    13 N    0.965
    12   8 O    1.934 --    11 C    1.642     9 N    0.144
    13   7 N    3.440 --     5 C    1.227    14 C    0.994    11 C    0.965
    14   6 C    3.905 --    13 N    0.994    23 H    0.958    22 H    0.957
                            24 H    0.956
    15   1 H    0.981 --     1 C    0.960
    16   1 H    0.986 --     1 C    0.970
    17   1 H    0.979 --     1 C    0.957
    18   1 H    0.984 --     3 C    0.951
    19   1 H    0.958 --    10 C    0.944
    20   1 H    0.951 --    10 C    0.936
    21   1 H    0.969 --    10 C    0.953
    22   1 H    0.974 --    14 C    0.957
    23   1 H    0.975 --    14 C    0.958
    24   1 H    0.976 --    14 C    0.956
    25   1 H    0.942 --     9 N    0.849
 ---------------------------------------------------------------------------

molecular dipole:
                 x           y           z       tot (Debye)
 q only:        1.523       0.332      -0.792
   full:        2.119       0.361      -0.766       5.801

           -------------------------------------------------
          | TOTAL ENERGY              -42.195900740366 Eh   |
          | GRADIENT NORM               0.002794562296 Eh/α |
          | HOMO-LUMO GAP               2.479295842412 eV   |
           -------------------------------------------------

 * finished run on 2024/06/05 at 19:58:52.828
