   * xtb version 6.6.1 (8d0f1dd) compiled by 'conda@1efc2f54142f' on 2023-08-01
          program call               : xtb xtbopt.xyz --opt crude --input .xc2 --gfn2

   ID    Z sym.   atoms
    1    6 C      1, 3, 5-7, 10, 11, 14
    2    7 N      2, 4, 9, 13
    3    8 O      8, 12
    4    1 H      15-25
########################################################################
[WARNING] Please study the warnings concerning your input carefully
-1- readin_getIntValue: could not parse ''
########################################################################

          :  Hamiltonian                  GFN2-xTB          :
 * total energy  :   -42.1961449 Eh     change       -0.1286082E-11 Eh
 * total energy  :   -42.2010067 Eh     change       -0.4861739E-02 Eh
 * total energy  :   -42.2034199 Eh     change       -0.2413238E-02 Eh
 * total energy  :   -42.2046675 Eh     change       -0.1247561E-02 Eh
 * total energy  :   -42.2053410 Eh     change       -0.6735060E-03 Eh
 * total energy  :   -42.2056276 Eh     change       -0.2866322E-03 Eh
   *** GEOMETRY OPTIMIZATION CONVERGED AFTER 6 ITERATIONS ***

 final structure:
================
25
 xtb: 6.6.1 (8d0f1dd)
C            3.95022342320872        0.28584688064356       -0.12512624492584
N            2.52334454629558        0.22265575022123       -0.24785893804907
C            1.77064866318446        0.67894554019635       -1.25558150869620
N            0.48322442960165        0.47613090531535       -1.06408053891525
C            0.33438556863311       -0.14289287487995        0.12205815792675
C            1.64516999614327       -0.33166959486196        0.69805731506418
C            2.03984338593242       -0.88524666080845        1.85549874556610
O            2.42297749339948       -1.36507975355052        2.84148370021159
N           -2.12863640832195        0.32115754605806       -1.11698377072751
C           -3.33885701270975        0.60588377053123       -1.83340540081550
C           -2.13059452305213       -0.29569102688584        0.07233341389264
O           -3.12019792166364       -0.66538717821365        0.66255543307668
N           -0.84341923327813       -0.51613492778122        0.66504475843090
C           -0.83836159596138       -1.18748464919853        1.94785078380035
H            4.36414955384901       -0.71083740353086        0.04003683528955
H            4.36775550260248        0.69768265050032       -1.04212228259675
H            4.23637520950123        0.92430019609121        0.71408496299140
H            2.16420932067518        1.15959368682167       -2.13027772147059
H           -3.37779204661382        1.66664115918950       -2.09064371357938
H           -3.37605055562622        0.02694318750206       -2.76029205060611
H           -4.19652280807965        0.34484117314104       -1.21255075187230
H           -0.41874078780872       -0.54103607753534        2.72110179243689
H           -0.26920283964899       -2.11729719998088        1.89392269746314
H           -1.87434702818443       -1.41856391356629        2.20373771086212
H           -1.22915281798706        0.58493735618627       -1.52767176685516

          :  Hamiltonian                  GFN2-xTB          :
         :: total energy             -42.205627618057 Eh    ::
         :: gradient norm              0.006283936697 Eh/a0 ::
         :: HOMO-LUMO gap              2.540258351446 eV    ::
         :: SCC energy               -42.746361723944 Eh    ::
         :: -> dispersion             -0.021458686107 Eh    ::
         :: repulsion energy           0.540709664248 Eh    ::

    * Orbital Energies and Occupations

         #    Occupation            Energy/Eh            Energy/eV
      -------------------------------------------------------------
         1        2.0000           -0.9245840             -25.1592
       ...           ...                  ...                  ...
        25        1.9984           -0.6662684             -18.1301
        26        1.9982           -0.6631150             -18.0443
        27        1.9979           -0.6593500             -17.9418
        28        1.9959           -0.6440454             -17.5254
        29        1.9950           -0.6392421             -17.3947
        30        1.9899           -0.6224315             -16.9372
        31        1.9860           -0.6146298             -16.7249
        32        1.9821           -0.6087638             -16.5653
        33        1.9795           -0.6054538             -16.4752
        34        1.9357           -0.5778176             -15.7232
        35        1.9253           -0.5741133             -15.6224
        36        1.8652           -0.5593473             -15.2206
        37        1.8021           -0.5494096             -14.9502 (HOMO)
        38        0.3033           -0.4560569             -12.4099 (LUMO)
        39        0.2334           -0.4488764             -12.2145
        40        0.0126           -0.3767125             -10.2509
        41        0.0032           -0.3442176              -9.3666
        42        0.0006           -0.3035418              -8.2598
        43        0.0000           -0.1958872              -5.3304
        44        0.0000           -0.1650699              -4.4918
        45        0.0000           -0.1016663              -2.7665
        46                         -0.0764903              -2.0814
        47                         -0.0643109              -1.7500
        48                         -0.0325903              -0.8868
       ...                                ...                  ...
        67                          0.9180962              24.9827
      -------------------------------------------------------------
                  HL-Gap            0.0933528 Eh            2.5403 eV

     #   Z          covCN         q      C6AA      α(0)
     1   6 C        3.689    -0.075    22.142     6.735
     2   7 N        2.813     0.028    20.759     6.767
     3   6 C        3.094     0.101    25.658     8.302
     4   7 N        1.900    -0.237    27.059     7.712
     5   6 C        3.072     0.141    24.855     8.174
     6   6 C        3.051    -0.005    28.097     8.693
     7   6 C        1.842     0.235    25.687     8.188
     8   8 O        0.856    -0.119    16.792     5.494
     9   7 N        2.685    -0.131    23.847     7.253
    10   6 C        3.692    -0.061    21.862     6.690
    11   6 C        2.700     0.323    21.513     7.591
    12   8 O        0.859    -0.355    20.805     6.115
    13   7 N        2.736    -0.052    22.251     7.006
    14   6 C        3.704    -0.071    22.011     6.707
    15   1 H        0.924     0.098     1.800     2.098
    16   1 H        0.925     0.105     1.743     2.065
    17   1 H        0.924     0.099     1.790     2.092
    18   1 H        0.926     0.104     1.744     2.065
    19   1 H        0.924     0.104     1.749     2.068
    20   1 H        0.924     0.106     1.734     2.059
    21   1 H        0.924     0.119     1.619     1.990
    22   1 H        0.924     0.087     1.904     2.158
    23   1 H        0.924     0.087     1.909     2.161
    24   1 H        0.924     0.138     1.477     1.901
    25   1 H        0.860     0.231     0.961     1.535

Wiberg/Mayer (AO) data.
largest (>0.10) Wiberg bond orders for each atom

     #   Z sym  total        # sym  WBO       # sym  WBO       # sym  WBO
 ---------------------------------------------------------------------------
     1   6 C    3.925 --     2 N    0.999    16 H    0.970    15 H    0.960
                            17 H    0.957
     2   7 N    3.551 --     3 C    1.315     6 C    1.069     1 C    0.999
     3   6 C    3.840 --     4 N    1.422     2 N    1.315    18 H    0.952
     4   7 N    3.038 --     3 C    1.422     5 C    1.295
     5   6 C    3.835 --     4 N    1.295    13 N    1.230     6 C    1.143
     6   6 C    3.861 --     7 C    1.384     5 C    1.143     2 N    1.069
                             8 O    0.113
     7   6 C    3.553 --     8 O    2.061     6 C    1.384
     8   8 O    2.278 --     7 C    2.061     6 C    0.113
     9   7 N    3.348 --    11 C    1.256    10 C    1.014    25 H    0.860
                            12 O    0.143
    10   6 C    3.876 --     9 N    1.014    21 H    0.955    19 H    0.944
                            20 H    0.937
    11   6 C    3.938 --    12 O    1.630     9 N    1.256    13 N    0.987
    12   8 O    1.923 --    11 C    1.630     9 N    0.143
    13   7 N    3.462 --     5 C    1.230    14 C    0.989    11 C    0.987
    14   6 C    3.903 --    13 N    0.989    23 H    0.956    22 H    0.955
                            24 H    0.949
    15   1 H    0.980 --     1 C    0.960
    16   1 H    0.986 --     1 C    0.970
    17   1 H    0.979 --     1 C    0.957
    18   1 H    0.984 --     3 C    0.952
    19   1 H    0.958 --    10 C    0.944
    20   1 H    0.952 --    10 C    0.937
    21   1 H    0.971 --    10 C    0.955
    22   1 H    0.977 --    14 C    0.955
    23   1 H    0.977 --    14 C    0.956
    24   1 H    0.974 --    14 C    0.949
    25   1 H    0.943 --     9 N    0.860
 ---------------------------------------------------------------------------

molecular dipole:
                 x           y           z       tot (Debye)
 q only:        1.505       0.360      -0.837
   full:        2.089       0.405      -0.841       5.816

           -------------------------------------------------
          | TOTAL ENERGY              -42.205627618057 Eh   |
          | GRADIENT NORM               0.006283936697 Eh/α |
          | HOMO-LUMO GAP               2.540258351446 eV   |
           -------------------------------------------------

 * finished run on 2024/06/05 at 19:58:53.104
