   * xtb version 6.6.1 (8d0f1dd) compiled by 'conda@1efc2f54142f' on 2023-08-01
          program call               : xtb struc.xyz --opt loose --input .xc1 --gfn2

   ID    Z sym.   atoms
    1    6 C      1, 3, 5-7, 10, 11, 14
    2    7 N      2, 4, 9, 13
    3    8 O      8, 12
    4    1 H      15-25
constraining bond 7 10 to    5.0000000 Å, actual value:    2.4325910 Å

          :  Hamiltonian                  GFN2-xTB          :
 * total energy  :   -30.4757896 Eh     change       -0.6633627E-10 Eh
 * total energy  :   -34.7673350 Eh     change       -0.4291545E+01 Eh
 * total energy  :   -38.1812680 Eh     change       -0.3413933E+01 Eh
 * total energy  :   -40.3162164 Eh     change       -0.2134948E+01 Eh
 * total energy  :   -41.3384093 Eh     change       -0.1022193E+01 Eh
 * total energy  :   -41.5858503 Eh     change       -0.2474409E+00 Eh
 * total energy  :   -41.6298123 Eh     change       -0.4396201E-01 Eh
 * total energy  :   -41.6553875 Eh     change       -0.2557521E-01 Eh
 * total energy  :   -41.6729789 Eh     change       -0.1759144E-01 Eh
 * total energy  :   -41.7056909 Eh     change       -0.3271198E-01 Eh
 * total energy  :   -42.1728736 Eh     change       -0.5234216E-02 Eh
 * total energy  :   -42.1748227 Eh     change       -0.1949065E-02 Eh
 * total energy  :   -42.1772656 Eh     change       -0.2442946E-02 Eh
 * total energy  :   -42.1773461 Eh     change       -0.8049581E-04 Eh
 * total energy  :   -42.1786553 Eh     change       -0.1309191E-02 Eh
 * total energy  :   -42.1789623 Eh     change       -0.3069641E-03 Eh
 * total energy  :   -42.1791643 Eh     change       -0.2020178E-03 Eh
 * total energy  :   -42.1792170 Eh     change       -0.5267250E-04 Eh
 * total energy  :   -42.1792194 Eh     change       -0.2415850E-05 Eh
   *** GEOMETRY OPTIMIZATION CONVERGED AFTER 55 ITERATIONS ***

 final structure:
================
25
 xtb: 6.6.1 (8d0f1dd)
C            3.92249183868230        0.55752419468918        0.02492091920633
N            2.70928333270276       -0.21540232382509        0.00122614835662
C            2.60109316453799       -1.53004677326631       -0.01151066215537
N            1.29765084356911       -1.88104547362551       -0.01226596512791
C            0.54718523564619       -0.73670701351739        0.00070271095392
C            1.44573531755960        0.32055447073949        0.01011986700986
C            0.97969661823616        1.69969771867625       -0.00219196605919
O            1.62979803060486        2.69957560599460       -0.01989700922426
N           -0.47729239278769        1.71013277864491        0.00095940499870
C           -3.97879237918818        1.27767560492861       -0.00057987006851
C           -1.30676976119305        0.73158620309713        0.00235814057934
O           -2.63000186489907        0.60363794474973        0.00175161925996
N           -0.79122743335720       -0.62427141095950        0.00068949080025
C           -1.60039408852148       -1.82970668506943       -0.00614672795580
H            4.36650408920666        0.53074322281096        1.02120621316600
H            4.63897498172691        0.15966113597178       -0.69151120438847
H            3.68437021174706        1.59206122695295       -0.22033201579426
H            3.41775140957234       -2.22564956142657       -0.02217582817756
H           -3.87447378142250        2.35935779417910       -0.00528984771075
H           -4.47056538571041        0.92165339682613       -0.89946166851906
H           -4.45748725670818        0.91724611540852        0.90495233179437
H           -1.38725630029939       -2.43033551080779        0.87971109927832
H           -1.40426420587759       -2.41081921130897       -0.90887129540458
H           -2.64894694372059       -1.55092449574779        0.00691416698846
H            0.94736823398737       -2.82796041258262       -0.02410643389011

          :  Hamiltonian                  GFN2-xTB          :
         :: total energy             -42.179219384954 Eh    ::
         :: gradient norm              0.002446814114 Eh/a0 ::
         :: HOMO-LUMO gap              2.488841131779 eV    ::
         :: SCC energy               -42.690869674252 Eh    ::
         :: -> dispersion             -0.021687813446 Eh    ::
         :: repulsion energy           0.510631617517 Eh    ::

    * Orbital Energies and Occupations

         #    Occupation            Energy/Eh            Energy/eV
      -------------------------------------------------------------
         1        2.0000           -0.9075005             -24.6943
       ...           ...                  ...                  ...
        25        2.0000           -0.6670099             -18.1503
        26        2.0000           -0.6545031             -17.8099
        27        2.0000           -0.6433575             -17.5066
        28        2.0000           -0.6311453             -17.1743
        29        2.0000           -0.6273514             -17.0711
        30        2.0000           -0.6257345             -17.0271
        31        2.0000           -0.6131726             -16.6853
        32        2.0000           -0.6109658             -16.6252
        33        2.0000           -0.5895501             -16.0425
        34        2.0000           -0.5570792             -15.1589
        35        1.9999           -0.5499369             -14.9645
        36        1.9998           -0.5437745             -14.7969
        37        1.9940           -0.5182847             -14.1032 (HOMO)
        38        0.0064           -0.4268215             -11.6144 (LUMO)
        39        0.0001           -0.3891029             -10.5880
        40        0.0000           -0.3715503             -10.1104
        41                         -0.2708654              -7.3706
        42                         -0.2694218              -7.3313
        43                         -0.1919855              -5.2242
        44                         -0.1738203              -4.7299
        45                         -0.1532997              -4.1715
        46                         -0.1051813              -2.8621
        47                         -0.0553689              -1.5067
        48                         -0.0392348              -1.0676
       ...                                ...                  ...
        67                          0.6008923              16.3511
      -------------------------------------------------------------
                  HL-Gap            0.0914632 Eh            2.4888 eV

     #   Z          covCN         q      C6AA      α(0)
     1   6 C        3.692    -0.094    22.477     6.784
     2   7 N        2.839     0.088    19.709     6.594
     3   6 C        3.056     0.056    26.681     8.471
     4   7 N        2.803    -0.064    22.475     7.041
     5   6 C        3.046     0.120    25.319     8.253
     6   6 C        3.123    -0.023    28.399     8.727
     7   6 C        2.753     0.299    21.929     7.668
     8   8 O        0.857    -0.317    20.083     6.008
     9   7 N        1.832    -0.297    28.531     7.915
    10   6 C        3.607     0.014    20.876     6.601
    11   6 C        2.704     0.310    21.732     7.630
    12   8 O        1.692    -0.251    18.158     5.753
    13   7 N        2.740    -0.063    22.452     7.037
    14   6 C        3.697    -0.071    22.039     6.715
    15   1 H        0.924     0.111     1.688     2.032
    16   1 H        0.925     0.104     1.745     2.066
    17   1 H        0.925     0.137     1.483     1.904
    18   1 H        0.926     0.124     1.582     1.967
    19   1 H        0.925     0.102     1.766     2.078
    20   1 H        0.925     0.108     1.710     2.045
    21   1 H        0.925     0.109     1.708     2.044
    22   1 H        0.924     0.077     2.013     2.219
    23   1 H        0.924     0.077     2.012     2.218
    24   1 H        0.925     0.114     1.660     2.015
    25   1 H        0.860     0.227     0.978     1.549

Wiberg/Mayer (AO) data.
largest (>0.10) Wiberg bond orders for each atom

     #   Z sym  total        # sym  WBO       # sym  WBO       # sym  WBO
 ---------------------------------------------------------------------------
     1   6 C    3.916 --     2 N    0.984    16 H    0.966    17 H    0.962
                            15 H    0.954
     2   7 N    3.731 --     3 C    1.427     6 C    1.165     1 C    0.984
     3   6 C    3.931 --     2 N    1.427     4 N    1.283    18 H    0.952
     4   7 N    3.602 --     3 C    1.283     5 C    1.179    25 H    0.919
     5   6 C    3.959 --     6 C    1.358    13 N    1.236     4 N    1.179
     6   6 C    3.929 --     5 C    1.358     2 N    1.165     7 C    1.052
     7   6 C    3.958 --     8 O    1.786     6 C    1.052     9 N    1.030
     8   8 O    2.133 --     7 C    1.786     9 N    0.122
     9   7 N    3.087 --    11 C    1.612     7 C    1.030    12 O    0.139
                             8 O    0.122
    10   6 C    3.855 --    19 H    0.980    21 H    0.972    20 H    0.972
                            12 O    0.880
    11   6 C    3.934 --     9 N    1.612    12 O    1.193    13 N    0.992
    12   8 O    2.331 --    11 C    1.193    10 C    0.880     9 N    0.139
    13   7 N    3.563 --     5 C    1.236    11 C    0.992    14 C    0.978
    14   6 C    3.940 --    13 N    0.978    22 H    0.972    23 H    0.972
                            24 H    0.968
    15   1 H    0.987 --     1 C    0.954
    16   1 H    0.988 --     1 C    0.966
    17   1 H    0.981 --     1 C    0.962
    18   1 H    0.983 --     3 C    0.952
    19   1 H    0.989 --    10 C    0.980
    20   1 H    0.987 --    10 C    0.972
    21   1 H    0.987 --    10 C    0.972
    22   1 H    0.992 --    14 C    0.972
    23   1 H    0.992 --    14 C    0.972
    24   1 H    0.986 --    14 C    0.968
    25   1 H    0.948 --     4 N    0.919
 ---------------------------------------------------------------------------

molecular dipole:
                 x           y           z       tot (Debye)
 q only:        0.907      -2.754       0.010
   full:        0.930      -3.457       0.015       9.100

           -------------------------------------------------
          | TOTAL ENERGY              -42.179219384954 Eh   |
          | GRADIENT NORM               0.002446814114 Eh/α |
          | HOMO-LUMO GAP               2.488841131779 eV   |
           -------------------------------------------------

 * finished run on 2024/06/05 at 19:58:02.203
