   * xtb version 6.6.1 (8d0f1dd) compiled by 'conda@1efc2f54142f' on 2023-08-01
          program call               : xtb xtbopt.xyz --opt crude --input .xc2 --gfn2

   ID    Z sym.   atoms
    1    6 C      1, 3, 5-7, 10, 11, 14
    2    7 N      2, 4, 9, 13
    3    8 O      8, 12
    4    1 H      15-25
########################################################################
[WARNING] Please study the warnings concerning your input carefully
-1- readin_getIntValue: could not parse ''
########################################################################

          :  Hamiltonian                  GFN2-xTB          :
 * total energy  :   -42.1802124 Eh     change       -0.2131628E-13 Eh
 * total energy  :   -42.1920812 Eh     change       -0.1186874E-01 Eh
 * total energy  :   -42.2013937 Eh     change       -0.9312475E-02 Eh
 * total energy  :   -42.2069991 Eh     change       -0.5605425E-02 Eh
 * total energy  :   -42.2116958 Eh     change       -0.4696718E-02 Eh
 * total energy  :   -42.2153468 Eh     change       -0.3650953E-02 Eh
 * total energy  :   -42.2174693 Eh     change       -0.2122583E-02 Eh
 * total energy  :   -42.2184821 Eh     change       -0.1012749E-02 Eh
 * total energy  :   -42.2186605 Eh     change       -0.1784185E-03 Eh
 * total energy  :   -42.2187588 Eh     change       -0.9827771E-04 Eh
   *** GEOMETRY OPTIMIZATION CONVERGED AFTER 10 ITERATIONS ***

 final structure:
================
25
 xtb: 6.6.1 (8d0f1dd)
C            3.68788246999311        0.76700364920195        0.02663016934695
N            2.57292773604144       -0.14384394922616        0.00393514032772
C            2.61642163993127       -1.46417159383079       -0.00915612809599
N            1.36242194757650       -1.96242230117573       -0.01112187222897
C            0.49417000272274       -0.90864530593307        0.00131930317709
C            1.25986206965683        0.24260882878105        0.01132796924352
C            0.61727585794317        1.57538010534882       -0.00731718876616
O            1.21281261488013        2.61878015596401       -0.02986186586578
N           -0.75063383646747        1.46418160494700       -0.00286290290160
C           -3.44188425805508        1.59294078102992        0.00378190346219
C           -1.42421331130128        0.37577385109478        0.00136117165076
O           -2.73092732394632        0.35291390682679        0.00392971893855
N           -0.85767666110178       -0.90609832372972       -0.00018245561788
C           -1.62564255289451       -2.13549117698520       -0.00945224167199
H            4.14331572309756        0.77932399700201        1.01775880830503
H            4.43758378702776        0.46690626135369       -0.70390347193031
H            3.32063633705910        1.76921276918096       -0.20007186043849
H            3.50972936818828       -2.05721128839116       -0.01889267743465
H           -2.75003639094065        2.42462307928648       -0.00197232745552
H           -4.07024957255502        1.61481360703846       -0.88334223137652
H           -4.06115305675112        1.62031704806976        0.89666807495144
H           -1.39391115980487       -2.73122118316914        0.87452132710297
H           -1.41004842550606       -2.70916303485868       -0.91206582529299
H           -2.68237069375623       -1.88421405235216        0.00322218620047
H            1.12413920305646       -2.94405889394161       -0.02308110571365

          :  Hamiltonian                  GFN2-xTB          :
         :: total energy             -42.218758789877 Eh    ::
         :: gradient norm              0.006021373937 Eh/a0 ::
         :: HOMO-LUMO gap              2.662948023145 eV    ::
         :: SCC energy               -42.744696935901 Eh    ::
         :: -> dispersion             -0.022118819704 Eh    ::
         :: repulsion energy           0.525892602959 Eh    ::

    * Orbital Energies and Occupations

         #    Occupation            Energy/Eh            Energy/eV
      -------------------------------------------------------------
         1        2.0000           -0.9123879             -24.8273
       ...           ...                  ...                  ...
        25        2.0000           -0.6710797             -18.2610
        26        2.0000           -0.6621737             -18.0187
        27        2.0000           -0.6424405             -17.4817
        28        2.0000           -0.6353643             -17.2891
        29        2.0000           -0.6285371             -17.1034
        30        2.0000           -0.6261932             -17.0396
        31        2.0000           -0.6141766             -16.7126
        32        2.0000           -0.6109893             -16.6259
        33        2.0000           -0.5927294             -16.1290
        34        1.9999           -0.5597586             -15.2318
        35        1.9998           -0.5521689             -15.0253
        36        1.9998           -0.5498520             -14.9622
        37        1.9961           -0.5270301             -14.3412 (HOMO)
        38        0.0043           -0.4291686             -11.6783 (LUMO)
        39        0.0000           -0.3912207             -10.6457
        40        0.0000           -0.3786273             -10.3030
        41                         -0.2655460              -7.2259
        42                         -0.2020580              -5.4983
        43                         -0.1869409              -5.0869
        44                         -0.1483835              -4.0377
        45                         -0.1176668              -3.2019
        46                         -0.0804124              -2.1881
        47                         -0.0464803              -1.2648
        48                         -0.0313005              -0.8517
       ...                                ...                  ...
        67                          0.5735026              15.6058
      -------------------------------------------------------------
                  HL-Gap            0.0978615 Eh            2.6629 eV

     #   Z          covCN         q      C6AA      α(0)
     1   6 C        3.692    -0.095    22.509     6.789
     2   7 N        2.844     0.091    19.669     6.587
     3   6 C        3.068     0.056    26.679     8.470
     4   7 N        2.802    -0.060    22.396     7.029
     5   6 C        3.078     0.114    25.401     8.263
     6   6 C        3.129    -0.027    28.460     8.734
     7   6 C        2.773     0.299    21.919     7.668
     8   8 O        0.858    -0.348    20.661     6.094
     9   7 N        1.839    -0.299    28.603     7.926
    10   6 C        3.652    -0.001    20.919     6.568
    11   6 C        2.781     0.303    21.867     7.659
    12   8 O        1.707    -0.201    17.343     5.623
    13   7 N        2.739    -0.054    22.276     7.010
    14   6 C        3.693    -0.071    22.053     6.719
    15   1 H        0.924     0.111     1.684     2.029
    16   1 H        0.925     0.105     1.742     2.064
    17   1 H        0.924     0.142     1.450     1.883
    18   1 H        0.926     0.125     1.570     1.959
    19   1 H        0.925     0.105     1.741     2.063
    20   1 H        0.925     0.097     1.810     2.104
    21   1 H        0.925     0.097     1.811     2.104
    22   1 H        0.924     0.082     1.956     2.187
    23   1 H        0.924     0.082     1.955     2.187
    24   1 H        0.925     0.116     1.643     2.004
    25   1 H        0.860     0.228     0.973     1.545

Wiberg/Mayer (AO) data.
largest (>0.10) Wiberg bond orders for each atom

     #   Z sym  total        # sym  WBO       # sym  WBO       # sym  WBO
 ---------------------------------------------------------------------------
     1   6 C    3.913 --     2 N    0.983    16 H    0.965    17 H    0.959
                            15 H    0.954
     2   7 N    3.734 --     3 C    1.422     6 C    1.179     1 C    0.983
     3   6 C    3.931 --     2 N    1.422     4 N    1.287    18 H    0.952
     4   7 N    3.608 --     3 C    1.287     5 C    1.187    25 H    0.919
     5   6 C    3.956 --     6 C    1.385    13 N    1.193     4 N    1.187
     6   6 C    3.926 --     5 C    1.385     2 N    1.179     7 C    1.010
     7   6 C    3.963 --     8 O    1.738     9 N    1.131     6 C    1.010
     8   8 O    2.085 --     7 C    1.738     9 N    0.115
     9   7 N    3.087 --    11 C    1.533     7 C    1.131    12 O    0.116
                             8 O    0.115
    10   6 C    3.876 --    19 H    0.971    20 H    0.971    21 H    0.971
                            12 O    0.924
    11   6 C    3.946 --     9 N    1.533    12 O    1.202    13 N    1.072
    12   8 O    2.362 --    11 C    1.202    10 C    0.924     9 N    0.116
    13   7 N    3.568 --     5 C    1.193    11 C    1.072    14 C    0.975
    14   6 C    3.934 --    13 N    0.975    22 H    0.972    23 H    0.971
                            24 H    0.969
    15   1 H    0.987 --     1 C    0.954
    16   1 H    0.988 --     1 C    0.965
    17   1 H    0.980 --     1 C    0.959
    18   1 H    0.983 --     3 C    0.952
    19   1 H    0.989 --    10 C    0.971
    20   1 H    0.989 --    10 C    0.971
    21   1 H    0.989 --    10 C    0.971
    22   1 H    0.991 --    14 C    0.972
    23   1 H    0.991 --    14 C    0.971
    24   1 H    0.986 --    14 C    0.969
    25   1 H    0.947 --     4 N    0.919
 ---------------------------------------------------------------------------

molecular dipole:
                 x           y           z       tot (Debye)
 q only:        1.349      -2.717       0.017
   full:        1.519      -3.539       0.025       9.788

           -------------------------------------------------
          | TOTAL ENERGY              -42.218758789877 Eh   |
          | GRADIENT NORM               0.006021373937 Eh/α |
          | HOMO-LUMO GAP               2.662948023145 eV   |
           -------------------------------------------------

 * finished run on 2024/06/05 at 19:58:02.603
