   * xtb version 6.6.1 (8d0f1dd) compiled by 'conda@1efc2f54142f' on 2023-08-01
          program call               : xtb xtbopt.xyz --opt crude --input .xc2 --gfn2

   ID    Z sym.   atoms
    1    6 C      1, 3, 5-7, 10, 11, 14
    2    7 N      2, 4, 9, 13
    3    8 O      8, 12
    4    1 H      15-25

          :  Hamiltonian                  GFN2-xTB          :
 * total energy  :   -41.9265008 Eh     change       -0.2735590E-11 Eh
   *** GEOMETRY OPTIMIZATION CONVERGED AFTER 1 ITERATIONS ***

 final structure:
================
25
 xtb: 6.6.1 (8d0f1dd)
C            5.03787914651162        0.12754158443086        0.08947464657140
N            3.70261823769090       -0.23183936098771       -0.02728512672152
C            3.16528590360644       -1.38801124429995       -0.29755883335754
N            1.93573571062803       -1.70168613573896       -0.39713663188712
C           -0.39548256236675       -0.09162120276478       -0.01129890858057
C           -0.42601759009345        2.53604486662950        0.41374826875698
C           -1.00453033401929        1.22454018586035       -0.05379608340429
O           -0.47328471372652        2.30914531955309       -0.82039103588877
N           -2.41338483158683        1.03001003497154       -0.04326956228230
C           -3.39323763367072        2.08383006104958       -0.01555012732458
C           -2.67450972825991       -0.29054794485709        0.11161710675285
O           -3.71146096331919       -0.86904121596242        0.21953026117507
N           -1.37101532297756       -0.94084261630642        0.11523796503287
C           -1.28791188666850       -2.36798678014549        0.24765857563062
H            5.19802744356807        0.57831943617931        1.07677274896645
H            5.74356109654816       -0.70498204198154       -0.04130967586556
H            5.26421384437217        0.90587753144615       -0.65051955522070
H            3.84636529907136       -2.24127615182101       -0.47123225642923
H           -3.14429745489177        2.80345436479536        0.76871338396374
H           -3.42800600187854        2.59904038612849       -0.97822276090207
H           -4.36526005433310        1.63646934709552        0.18912245108402
H           -0.94553743149789       -2.63212525936559        1.24952500333070
H           -0.58746382088122       -2.77514271605823       -0.48027744435777
H           -2.28503474712123       -2.78087264833576        0.09344851458384
H            1.17317990939138       -1.00005925792814       -0.25582930573130

          :  Hamiltonian                  GFN2-xTB          :
         :: total energy             -41.926500804950 Eh    ::
         :: gradient norm              0.004048170327 Eh/a0 ::
         :: HOMO-LUMO gap              0.196984544703 eV    ::
         :: SCC energy               -42.414670548802 Eh    ::
         :: -> dispersion             -0.018315856617 Eh    ::
         :: repulsion energy           0.488163324025 Eh    ::

    * Orbital Energies and Occupations

         #    Occupation            Energy/Eh            Energy/eV
      -------------------------------------------------------------
         1        2.0000           -0.9460641             -25.7437
       ...           ...                  ...                  ...
        25        1.9998           -0.6709553             -18.2576
        26        1.9992           -0.6461710             -17.5832
        27        1.9980           -0.6320995             -17.2003
        28        1.9973           -0.6277728             -17.0826
        29        1.9972           -0.6268626             -17.0578
        30        1.9963           -0.6228665             -16.9491
        31        1.9949           -0.6176891             -16.8082
        32        1.9896           -0.6062820             -16.4978
        33        1.9811           -0.5967221             -16.2376
        34        1.8748           -0.5659256             -15.3996
        35        1.8346           -0.5611694             -15.2702
        36        1.6903           -0.5499440             -14.9647
        37        1.3805           -0.5357573             -14.5787 (HOMO)
        38        1.1704           -0.5285182             -14.3817 (LUMO)
        39        0.0714           -0.4708683             -12.8130
        40        0.0252           -0.4540187             -12.3545
        41        0.0001           -0.3556206              -9.6769
        42        0.0000           -0.3540268              -9.6336
        43                         -0.2308094              -6.2806
        44                         -0.1944937              -5.2924
        45                         -0.1641502              -4.4668
        46                         -0.0947526              -2.5783
        47                         -0.0645198              -1.7557
        48                         -0.0523020              -1.4232
       ...                                ...                  ...
        67                          0.5668299              15.4242
      -------------------------------------------------------------
                  HL-Gap            0.0072390 Eh            0.1970 eV

     #   Z          covCN         q      C6AA      α(0)
     1   6 C        3.690    -0.045    21.576     6.648
     2   7 N        1.827    -0.119    24.357     7.313
     3   6 C        2.753     0.150    24.719     8.141
     4   7 N        1.775    -0.229    26.830     7.670
     5   6 C        1.981    -0.087    33.437     9.338
     6   6 C        1.833     0.020    30.656     8.945
     7   6 C        3.870     0.209    17.286     5.912
     8   8 O        1.703    -0.053    15.179     5.260
     9   7 N        2.777    -0.083    22.861     7.101
    10   6 C        3.688    -0.054    21.746     6.675
    11   6 C        2.823     0.318    21.608     7.617
    12   8 O        0.857    -0.317    20.088     6.009
    13   7 N        2.827     0.024    20.834     6.779
    14   6 C        3.693    -0.080    22.222     6.745
    15   1 H        0.924     0.127     1.560     1.953
    16   1 H        0.923     0.101     1.778     2.086
    17   1 H        0.924     0.126     1.563     1.955
    18   1 H        0.922     0.121     1.602     1.979
    19   1 H        0.924     0.097     1.814     2.106
    20   1 H        0.924     0.099     1.797     2.096
    21   1 H        0.925     0.116     1.648     2.007
    22   1 H        0.924     0.112     1.676     2.025
    23   1 H        0.925     0.118     1.630     1.996
    24   1 H        0.925     0.120     1.610     1.984
    25   1 H        0.859     0.210     1.058     1.611

Wiberg/Mayer (AO) data.
largest (>0.10) Wiberg bond orders for each atom

     #   Z sym  total        # sym  WBO       # sym  WBO       # sym  WBO
 ---------------------------------------------------------------------------
     1   6 C    3.872 --     2 N    1.118    16 H    0.914    15 H    0.903
                            17 H    0.902
     2   7 N    2.613 --     3 C    1.404     1 C    1.118
     3   6 C    3.921 --     4 N    1.629     2 N    1.404    18 H    0.839
     4   7 N    2.567 --     3 C    1.629    25 H    0.794
     5   6 C    3.063 --    13 N    1.563     7 C    1.089    25 H    0.119
     6   6 C    2.510 --     8 O    1.574     7 C    0.789
     7   6 C    3.775 --     5 C    1.089     9 N    1.000     8 O    0.820
                             6 C    0.789
     8   8 O    2.495 --     6 C    1.574     7 C    0.820
     9   7 N    3.437 --    11 C    1.190     7 C    1.000    10 C    0.986
                            12 O    0.156
    10   6 C    3.905 --     9 N    0.986    21 H    0.965    19 H    0.955
                            20 H    0.955
    11   6 C    3.931 --    12 O    1.723     9 N    1.190    13 N    0.923
    12   8 O    2.036 --    11 C    1.723     9 N    0.156
    13   7 N    3.662 --     5 C    1.563    14 C    0.990    11 C    0.923
    14   6 C    3.908 --    13 N    0.990    24 H    0.964    23 H    0.954
                            22 H    0.947
    15   1 H    0.924 --     1 C    0.903
    16   1 H    0.920 --     1 C    0.914
    17   1 H    0.923 --     1 C    0.902
    18   1 H    0.859 --     3 C    0.839
    19   1 H    0.975 --    10 C    0.955
    20   1 H    0.972 --    10 C    0.955
    21   1 H    0.980 --    10 C    0.965
    22   1 H    0.979 --    14 C    0.947
    23   1 H    0.978 --    14 C    0.954
    24   1 H    0.982 --    14 C    0.964
    25   1 H    0.934 --     4 N    0.794     5 C    0.119
 ---------------------------------------------------------------------------

molecular dipole:
                 x           y           z       tot (Debye)
 q only:        1.896      -0.110       0.140
   full:        2.002       0.041      -0.251       5.128

           -------------------------------------------------
          | TOTAL ENERGY              -41.926500804950 Eh   |
          | GRADIENT NORM               0.004048170327 Eh/α |
          | HOMO-LUMO GAP               0.196984544703 eV   |
           -------------------------------------------------

 * finished run on 2024/06/05 at 19:57:56.073
