   * xtb version 6.6.1 (8d0f1dd) compiled by 'conda@1efc2f54142f' on 2023-08-01
          program call               : xtb xtbopt.xyz --opt crude --input .xc2 --gfn2

   ID    Z sym.   atoms
    1    7 N      1, 17
    2    6 C      2-6, 8, 9, 11-16, 18-23, 25, 26, 28-33
    3    8 O      7, 10, 24, 27
    4    1 H      34-72

          :  Hamiltonian                  GFN2-xTB          :
 * total energy  :   -99.2468850 Eh     change       -0.1812595E-09 Eh
   *** GEOMETRY OPTIMIZATION CONVERGED AFTER 1 ITERATIONS ***

 final structure:
================
72
 xtb: 6.6.1 (8d0f1dd)
N           -1.85506215255316        2.76054361385735        2.22552618825880
C           -1.80198529190363        2.11657494854124        1.15838657589840
C           -2.95627880035577        1.90745282326720        0.21756072059789
C           -3.44099397725443        0.46675907474794        0.30077093818249
C           -4.40348236706245        0.00688743459063       -0.60074952315409
C           -4.89163459224511       -1.28831280597537       -0.54134489613431
O           -5.82899275831816       -1.80892030274249       -1.35665116552512
C           -6.46566620625987       -0.98303145424153       -2.30355945122767
C           -4.39157284402626       -2.18078336089596        0.44715273032151
O           -4.91355491292341       -3.42152357443193        0.42194545246337
C           -4.52507678814828       -4.35256436226302        1.40513528820906
C           -3.43643436539296       -1.71788589699944        1.33829477124293
C           -2.97087478141511       -0.41056875758441        1.26663021902622
C           -2.40470111005765        2.19382734453132       -1.20316080833652
C           -1.45270072722007        1.10839559401034       -1.73806682131038
C           -0.12659009394674        1.10432345182108       -1.08101951015925
N            0.51086610936018        0.03087904359058       -0.65744042401680
C            1.88448822911561        0.12127147329399       -0.22168241618475
C            2.84250823265936       -0.35857737775025       -1.32508440678723
C            4.25735071637368       -0.16724477804641       -0.87507867917373
C            4.92315432903185        1.01449121083292       -1.02875681644346
C            6.20707256404286        1.26560937139593       -0.64505406569906
C            6.92770642651013        0.23796303286623       -0.01682420171684
O            8.19233029809664        0.31755672172978        0.41573883977733
C            8.92720649282182        1.50638790723148        0.23404006827329
C            6.26754169155547       -1.00570124634594        0.20538682569652
O            7.01796970280794       -1.92763704281764        0.84377680884211
C            6.48430580847113       -3.20211441796856        1.11220917305780
C            4.96079470228556       -1.18854445880743       -0.21937144568793
C           -0.07812906519045       -1.28682585422450       -0.69222766520000
C           -4.16017292231596        2.84824719570434        0.52473330502406
C           -4.79257311469805        2.51855890806864        1.87472588681171
C           -3.79003566323750        4.32767779331840        0.47358501589843
H           -4.79030407260683        0.67672100205066       -1.35061481708139
H           -6.97132940275765       -0.13957224254269       -1.82412246433674
H           -7.20508996922970       -1.61609601721542       -2.79032884690119
H           -5.76049678001845       -0.61134849110982       -3.05372206601853
H           -4.76203606747182       -3.99513140821740        2.41143221835437
H           -5.09971119851474       -5.25304806721174        1.19745083492759
H           -3.45674263644642       -4.58223841097094        1.34017532997788
H           -3.05443282058028       -2.36580076736966        2.11047775248814
H           -2.25171136671714       -0.07775821598352        1.99914409764708
H           -3.24173241319953        2.27921806473983       -1.89497098920045
H           -1.88373316974078        3.15156823387537       -1.19485489748695
H           -1.93802364391531        0.13543917517379       -1.67863629321850
H           -1.27945604005132        1.33595720927308       -2.79724431147397
H           -0.87109946118030        1.66417226910102        0.76187772297135
H            0.44063505659719        2.02614535729369       -1.09533163866478
H            2.01739251066054       -0.47660034917670        0.68394977407135
H            2.12859342227292        1.16176483340936        0.00240833927824
H            2.67373837239866        0.27328891775513       -2.20292238272633
H            2.65002962194023       -1.40156003588503       -1.57585176395756
H            2.77711246955216        2.38305851707778       -2.09295543797937
H            6.66214721938962        2.22704256933312       -0.81874409880730
H            8.46023943869787        2.35101732753228        0.74931799199619
H            9.04731772294610        1.74624117097641       -0.82652363076618
H            9.90313111064329        1.30889680643661        0.67403426754687
H            7.28382533676494       -3.74475111415547        1.61279170758170
H            5.61530198968805       -3.14451801846578        1.77569511205736
H            6.20962963423363       -3.72677356172640        0.19218644782068
H            4.46749888853942       -2.13448557425770       -0.05779027969373
H           -0.22228746048645       -1.62492461597697       -1.72017125076996
H           -1.04417070911086       -1.28981450376343       -0.18133140809896
H            0.58270485404730       -1.98615540655600       -0.18643696152064
H           -4.90873357422532        2.66111338096950       -0.25319136833002
H           -4.08112925078330        2.70376409390504        2.67308598662918
H           -5.10888019431924        1.47919261999355        1.91824454121249
H           -5.66326745419792        3.14906885722629        2.03333224290642
H           -3.01945909699418        4.55213833835290        1.20486990918258
H           -3.44653075827416        4.62672280034014       -0.51312719357056
H           -4.66682379504191        4.92275737418305        0.71452288671860
H           -1.00238348411695        2.86625615178182        2.76561326900981

          :  Hamiltonian                  GFN2-xTB          :
         :: total energy             -99.246885033941 Eh    ::
         :: gradient norm              0.008842863292 Eh/a0 ::
         :: HOMO-LUMO gap              0.748462600835 eV    ::
         :: SCC energy              -100.615157449893 Eh    ::
         :: -> dispersion             -0.076994693104 Eh    ::
         :: repulsion energy           1.367024833068 Eh    ::

    * Orbital Energies and Occupations

         #    Occupation            Energy/Eh            Energy/eV
      -------------------------------------------------------------
         1        2.0000           -0.8150229             -22.1779
       ...           ...                  ...                  ...
        78        1.9979           -0.5339810             -14.5304
        79        1.9978           -0.5331263             -14.5071
        80        1.9977           -0.5324949             -14.4899
        81        1.9970           -0.5282395             -14.3741
        82        1.9949           -0.5199551             -14.1487
        83        1.9939           -0.5172032             -14.0738
        84        1.9927           -0.5143484             -13.9961
        85        1.9775           -0.4963855             -13.5073
        86        1.9733           -0.4936823             -13.4338
        87        1.9259           -0.4771138             -12.9829
        88        1.8486           -0.4651537             -12.6575
        89        1.8073           -0.4609761             -12.5438
        90        1.5014           -0.4429833             -12.0542 (HOMO)
        91        0.6928           -0.4154778             -11.3057 (LUMO)
        92        0.2903           -0.3974534             -10.8153
        93        0.0129           -0.3457499              -9.4083
        94        0.0030           -0.3226834              -8.7807
        95        0.0029           -0.3220002              -8.7621
        96        0.0025           -0.3199427              -8.7061
        97        0.0012           -0.3076666              -8.3720
        98        0.0000           -0.1973116              -5.3691
        99        0.0000           -0.1909062              -5.1948
       100                         -0.1365483              -3.7157
       101                         -0.0722116              -1.9650
       ...                                ...                  ...
       171                          0.5657679              15.3953
      -------------------------------------------------------------
                  HL-Gap            0.0275055 Eh            0.7485 eV

     #   Z          covCN         q      C6AA      α(0)
     1   7 N        1.773    -0.261    27.591     7.778
     2   6 C        2.826     0.101    25.753     8.315
     3   6 C        3.907     0.007    20.408     6.421
     4   6 C        2.973     0.004    27.931     8.669
     5   6 C        2.920    -0.079    29.973     8.978
     6   6 C        2.861     0.131    25.124     8.216
     7   8 O        1.706    -0.226    17.740     5.687
     8   6 C        3.644     0.026    20.477     6.505
     9   6 C        2.864     0.130    25.151     8.221
    10   8 O        1.706    -0.224    17.721     5.684
    11   6 C        3.645     0.026    20.478     6.504
    12   6 C        2.913    -0.074    29.852     8.959
    13   6 C        2.921    -0.053    29.319     8.879
    14   6 C        3.812    -0.066    21.754     6.639
    15   6 C        3.802    -0.070    21.841     6.654
    16   6 C        2.845     0.021    27.529     8.599
    17   7 N        2.730     0.025    20.809     6.775
    18   6 C        3.760    -0.017    20.925     6.521
    19   6 C        3.808    -0.066    21.762     6.641
    20   6 C        2.965     0.019    27.580     8.614
    21   6 C        2.019    -0.039    32.052     9.143
    22   6 C        2.909    -0.056    29.386     8.889
    23   6 C        2.869     0.139    24.972     8.192
    24   8 O        1.706    -0.208    17.457     5.641
    25   6 C        3.644     0.023    20.534     6.514
    26   6 C        2.858     0.129    25.171     8.223
    27   8 O        1.706    -0.223    17.697     5.680
    28   6 C        3.643     0.026    20.488     6.507
    29   6 C        2.931    -0.077    29.916     8.970
    30   6 C        3.700    -0.073    22.073     6.719
    31   6 C        3.853    -0.007    20.671     6.466
    32   6 C        3.756    -0.120    22.858     6.817
    33   6 C        3.755    -0.119    22.829     6.813
    34   1 H        0.926     0.054     2.267     2.355
    35   1 H        0.924     0.056     2.249     2.345
    36   1 H        0.925     0.083     1.945     2.181
    37   1 H        0.924     0.050     2.320     2.382
    38   1 H        0.924     0.057     2.237     2.339
    39   1 H        0.925     0.083     1.947     2.182
    40   1 H        0.924     0.050     2.326     2.385
    41   1 H        0.926     0.053     2.277     2.360
    42   1 H        0.926     0.039     2.460     2.453
    43   1 H        0.925     0.063     2.167     2.302
    44   1 H        0.924     0.059     2.214     2.327
    45   1 H        0.925     0.067     2.124     2.279
    46   1 H        0.924     0.090     1.883     2.146
    47   1 H        0.922     0.012     2.851     2.641
    48   1 H        0.925     0.092     1.856     2.131
    49   1 H        0.924     0.065     2.138     2.287
    50   1 H        0.924     0.083     1.952     2.185
    51   1 H        0.924     0.084     1.943     2.180
    52   1 H        0.925     0.054     2.270     2.356
    53   1 H        0.000    -0.241    36.209    11.003
    54   1 H        0.926     0.080     1.980     2.201
    55   1 H        0.924     0.060     2.197     2.318
    56   1 H        0.924     0.062     2.173     2.305
    57   1 H        0.925     0.087     1.908     2.160
    58   1 H        0.925     0.085     1.928     2.171
    59   1 H        0.924     0.050     2.314     2.379
    60   1 H        0.924     0.055     2.263     2.352
    61   1 H        0.926     0.059     2.209     2.324
    62   1 H        0.924     0.080     1.977     2.199
    63   1 H        0.924     0.081     1.966     2.193
    64   1 H        0.925     0.082     1.954     2.186
    65   1 H        0.924     0.040     2.452     2.449
    66   1 H        0.925     0.072     2.060     2.245
    67   1 H        0.925     0.036     2.497     2.471
    68   1 H        0.925     0.053     2.279     2.361
    69   1 H        0.925     0.059     2.209     2.324
    70   1 H        0.925     0.037     2.486     2.466
    71   1 H        0.925     0.057     2.237     2.339
    72   1 H        0.860     0.162     1.324     1.803

Wiberg/Mayer (AO) data.
largest (>0.10) Wiberg bond orders for each atom

     #   Z sym  total        # sym  WBO       # sym  WBO       # sym  WBO
 ---------------------------------------------------------------------------
     1   7 N    3.050 --     2 C    1.961    72 H    0.939
     2   6 C    3.928 --     1 N    1.961     3 C    0.994    47 H    0.888
     3   6 C    3.974 --     2 C    0.994     4 C    0.968    14 C    0.959
                            31 C    0.939
     4   6 C    3.944 --    13 C    1.410     5 C    1.370     3 C    0.968
     5   6 C    3.959 --     6 C    1.399     4 C    1.370    34 H    0.957
     6   6 C    3.901 --     5 C    1.399     9 C    1.216     7 O    1.105
     7   8 O    2.256 --     6 C    1.105     8 C    0.976
     8   6 C    3.929 --     7 O    0.976    36 H    0.976    35 H    0.973
                            37 H    0.973
     9   6 C    3.897 --    12 C    1.390     6 C    1.216    10 O    1.107
    10   8 O    2.254 --     9 C    1.107    11 C    0.976
    11   6 C    3.929 --    39 H    0.977    10 O    0.976    40 H    0.973
                            38 H    0.973
    12   6 C    3.959 --    13 C    1.404     9 C    1.390    41 H    0.963
    13   6 C    3.949 --     4 C    1.410    12 C    1.404    42 H    0.963
    14   6 C    3.973 --    15 C    0.980    44 H    0.971    43 H    0.968
                             3 C    0.959
    15   6 C    3.986 --    16 C    1.060    14 C    0.980    45 H    0.962
                            46 H    0.924
    16   6 C    3.665 --    17 N    1.448    15 C    1.060    48 H    0.949
    17   7 N    3.530 --    16 C    1.448    30 C    0.996    18 C    0.984
    18   6 C    3.947 --    17 N    0.984    19 C    0.964    49 H    0.963
                            50 H    0.963
    19   6 C    3.954 --    20 C    1.005    52 H    0.971    18 C    0.964
                            51 H    0.949
    20   6 C    3.904 --    21 C    1.424    29 C    1.324    19 C    1.005
    21   6 C    3.181 --    22 C    1.466    20 C    1.424    53 H    0.115
    22   6 C    3.929 --    21 C    1.466    23 C    1.319    54 H    0.946
    23   6 C    3.842 --    22 C    1.319    26 C    1.216    24 O    1.123
    24   8 O    2.262 --    23 C    1.123    25 C    0.970
    25   6 C    3.920 --    57 H    0.975    56 H    0.971    55 H    0.971
                            24 O    0.970
    26   6 C    3.888 --    29 C    1.400    23 C    1.216    27 O    1.101
    27   8 O    2.241 --    26 C    1.101    28 C    0.977
    28   6 C    3.928 --    27 O    0.977    58 H    0.976    59 H    0.973
                            60 H    0.972
    29   6 C    3.907 --    26 C    1.400    20 C    1.324    61 H    0.953
    30   6 C    3.955 --    17 N    0.996    64 H    0.977    62 H    0.966
                            63 H    0.959
    31   6 C    3.969 --    33 C    1.009    32 C    1.008    65 H    0.958
                             3 C    0.939
    32   6 C    3.974 --    31 C    1.008    67 H    0.981    68 H    0.980
                            66 H    0.971
    33   6 C    3.981 --    31 C    1.009    70 H    0.982    71 H    0.979
                            69 H    0.976
    34   1 H    0.996 --     5 C    0.957
    35   1 H    0.992 --     8 C    0.973
    36   1 H    0.992 --     8 C    0.976
    37   1 H    0.993 --     8 C    0.973
    38   1 H    0.992 --    11 C    0.973
    39   1 H    0.992 --    11 C    0.977
    40   1 H    0.992 --    11 C    0.973
    41   1 H    0.995 --    12 C    0.963
    42   1 H    0.998 --    13 C    0.963
    43   1 H    0.995 --    14 C    0.968
    44   1 H    0.996 --    14 C    0.971
    45   1 H    0.995 --    15 C    0.962
    46   1 H    0.973 --    15 C    0.924
    47   1 H    0.985 --     2 C    0.888
    48   1 H    0.991 --    16 C    0.949
    49   1 H    0.991 --    18 C    0.963
    50   1 H    0.992 --    18 C    0.963
    51   1 H    0.991 --    19 C    0.949
    52   1 H    0.995 --    19 C    0.971
    53   1 H    0.167 --    21 C    0.115
    54   1 H    0.978 --    22 C    0.946
    55   1 H    0.990 --    25 C    0.971
    56   1 H    0.989 --    25 C    0.971
    57   1 H    0.991 --    25 C    0.975
    58   1 H    0.992 --    28 C    0.976
    59   1 H    0.992 --    28 C    0.973
    60   1 H    0.991 --    28 C    0.972
    61   1 H    0.985 --    29 C    0.953
    62   1 H    0.986 --    30 C    0.966
    63   1 H    0.988 --    30 C    0.959
    64   1 H    0.993 --    30 C    0.977
    65   1 H    0.991 --    31 C    0.958
    66   1 H    0.989 --    32 C    0.971
    67   1 H    0.996 --    32 C    0.981
    68   1 H    0.993 --    32 C    0.980
    69   1 H    0.993 --    33 C    0.976
    70   1 H    0.996 --    33 C    0.982
    71   1 H    0.993 --    33 C    0.979
    72   1 H    0.968 --     1 N    0.939
 ---------------------------------------------------------------------------

molecular dipole:
                 x           y           z       tot (Debye)
 q only:        0.232      -0.927      -0.001
   full:        0.593      -1.015      -0.145       3.012

           -------------------------------------------------
          | TOTAL ENERGY              -99.246885033941 Eh   |
          | GRADIENT NORM               0.008842863292 Eh/α |
          | HOMO-LUMO GAP               0.748462600835 eV   |
           -------------------------------------------------

 * finished run on 2024/04/06 at 11:14:21.410
