   * xtb version 6.6.1 (8d0f1dd) compiled by 'conda@1efc2f54142f' on 2023-08-01
          program call               : xtb struc.xyz --opt loose --input .xc1 --gfn2

   ID    Z sym.   atoms
    1    6 C      1, 3, 5-7, 10, 11, 14
    2    7 N      2, 4, 9, 13
    3    8 O      8, 12
    4    1 H      15-25
constraining bond 5 18 to    5.1400000 Å, actual value:    3.2287314 Å

          :  Hamiltonian                  GFN2-xTB          :
 * total energy  :   -35.7254033 Eh     change       -0.6650680E-10 Eh
 * total energy  :   -38.6735944 Eh     change       -0.2948191E+01 Eh
 * total energy  :   -40.5733194 Eh     change       -0.1899725E+01 Eh
 * total energy  :   -41.5450418 Eh     change       -0.9717224E+00 Eh
 * total energy  :   -41.8318625 Eh     change       -0.2868207E+00 Eh
 * total energy  :   -41.8848099 Eh     change       -0.5294742E-01 Eh
 * total energy  :   -41.9245711 Eh     change       -0.3976115E-01 Eh
 * total energy  :   -41.9715000 Eh     change       -0.4692889E-01 Eh
 * total energy  :   -42.0064884 Eh     change       -0.3498841E-01 Eh
 * total energy  :   -42.0299808 Eh     change       -0.2349241E-01 Eh
 * total energy  :   -42.0845880 Eh     change       -0.7128424E-03 Eh
 * total energy  :   -42.0871644 Eh     change       -0.2576378E-02 Eh
 * total energy  :   -42.0878541 Eh     change       -0.6896796E-03 Eh
 * total energy  :   -42.0885768 Eh     change       -0.7226635E-03 Eh
 * total energy  :   -42.0889571 Eh     change       -0.3803173E-03 Eh
 * total energy  :   -42.0892740 Eh     change       -0.3169403E-03 Eh
 * total energy  :   -42.0900325 Eh     change       -0.7584603E-03 Eh
 * total energy  :   -42.0903415 Eh     change       -0.3089765E-03 Eh
 * total energy  :   -42.0903801 Eh     change       -0.3860877E-04 Eh
   *** GEOMETRY OPTIMIZATION CONVERGED AFTER 24 ITERATIONS ***

 final structure:
================
25
 xtb: 6.6.1 (8d0f1dd)
C            3.15751162734100        1.09733526659345        0.01720717458802
N            2.19378499009800        0.03223414863809       -0.00048565637907
C            2.47567322463156       -1.27408903323458       -0.00859077628272
N            1.29960630449143       -1.94736861811359       -0.00755166643209
C            0.26024489200215       -1.06176419262651        0.00064360078969
C            0.83018618798401        0.20511132043358        0.00627352489556
C            0.01484745518549        1.39940871262239       -0.00174804387307
O            0.42141629093540        2.53803061591324       -0.01400316856346
N           -1.34629814365411        1.08831542740942        0.00173647760335
C           -2.28565569983300        2.19838462608786       -0.00147280220931
C           -1.93085172421646       -0.16864172351914        0.00419354032619
O           -3.12225803966349       -0.31807099842384        0.00717535337885
N           -1.06601048600066       -1.27718398302144        0.00142339410649
C           -1.62923920087734       -2.61049259962762       -0.00216170137713
H            3.65981498696011        1.13290685592687        0.98560813913847
H            3.90711853238672        0.93123134452666       -0.75591295563147
H            2.64819774536876        2.04485552139757       -0.15380319358764
H            5.34057584052999       -1.82929535657047       -0.01709787284192
H           -1.71675427812333        3.12601882678164        0.00604426240985
H           -2.91739909037654        2.14883065425719       -0.88944758350012
H           -2.93095107574693        2.14134682647199        0.87613588831067
H           -1.31072340794868       -3.16025673930604        0.88470008120353
H           -1.32421596037066       -3.15005313910282       -0.90006396590417
H           -2.71456893464524       -2.51225705387286        0.00632458302772
H            1.24637947764179       -2.95629816804101       -0.01395501529621

          :  Hamiltonian                  GFN2-xTB          :
         :: total energy             -42.090380061201 Eh    ::
         :: gradient norm              0.003440591807 Eh/a0 ::
         :: HOMO-LUMO gap              0.943555958916 eV    ::
         :: SCC energy               -42.595141221499 Eh    ::
         :: -> dispersion             -0.022603719957 Eh    ::
         :: repulsion energy           0.504665548479 Eh    ::

    * Orbital Energies and Occupations

         #    Occupation            Energy/Eh            Energy/eV
      -------------------------------------------------------------
         1        2.0000           -0.8972948             -24.4166
       ...           ...                  ...                  ...
        25        1.9997           -0.6672171             -18.1559
        26        1.9997           -0.6662131             -18.1286
        27        1.9987           -0.6428878             -17.4939
        28        1.9978           -0.6343685             -17.2620
        29        1.9964           -0.6264808             -17.0474
        30        1.9936           -0.6172720             -16.7968
        31        1.9913           -0.6124513             -16.6656
        32        1.9877           -0.6070068             -16.5175
        33        1.9718           -0.5936989             -16.1554
        34        1.9283           -0.5785905             -15.7442
        35        1.9096           -0.5747669             -15.6402
        36        1.7198           -0.5551864             -15.1074
        37        1.7091           -0.5544938             -15.0885 (HOMO)
        38        0.7933           -0.5198188             -14.1450 (LUMO)
        39        0.0030           -0.4237402             -11.5306
        40        0.0005           -0.3943814             -10.7317
        41        0.0001           -0.3749779             -10.2037
        42        0.0000           -0.2957287              -8.0472
        43                         -0.2111329              -5.7452
        44                         -0.1687371              -4.5916
        45                         -0.1436035              -3.9076
        46                         -0.1337403              -3.6393
        47                         -0.0670467              -1.8244
        48                         -0.0417239              -1.1354
       ...                                ...                  ...
        67                          0.5398920              14.6912
      -------------------------------------------------------------
                  HL-Gap            0.0346750 Eh            0.9436 eV

     #   Z          covCN         q      C6AA      α(0)
     1   6 C        3.692    -0.085    22.309     6.758
     2   7 N        2.847     0.076    19.915     6.628
     3   6 C        2.067    -0.053    32.378     9.192
     4   7 N        2.813    -0.059    22.386     7.027
     5   6 C        3.015     0.117    25.411     8.269
     6   6 C        3.094    -0.011    28.170     8.699
     7   6 C        2.765     0.274    22.373     7.746
     8   8 O        0.858    -0.336    20.439     6.061
     9   7 N        2.745    -0.074    22.675     7.072
    10   6 C        3.709    -0.062    21.835     6.678
    11   6 C        2.729     0.319    21.582     7.606
    12   8 O        0.860    -0.338    20.482     6.068
    13   7 N        2.738    -0.042    22.061     6.976
    14   6 C        3.697    -0.071    22.033     6.714
    15   1 H        0.924     0.108     1.710     2.045
    16   1 H        0.925     0.108     1.714     2.047
    17   1 H        0.925     0.122     1.596     1.975
    18   1 H        0.000     0.129     3.845     3.585
    19   1 H        0.925     0.121     1.607     1.982
    20   1 H        0.924     0.111     1.691     2.034
    21   1 H        0.924     0.111     1.688     2.032
    22   1 H        0.924     0.094     1.843     2.123
    23   1 H        0.924     0.094     1.841     2.122
    24   1 H        0.925     0.128     1.547     1.945
    25   1 H        0.860     0.219     1.012     1.576

Wiberg/Mayer (AO) data.
largest (>0.10) Wiberg bond orders for each atom

     #   Z sym  total        # sym  WBO       # sym  WBO       # sym  WBO
 ---------------------------------------------------------------------------
     1   6 C    3.905 --     2 N    0.996    17 H    0.959    16 H    0.957
                            15 H    0.949
     2   7 N    3.647 --     3 C    1.365     6 C    1.169     1 C    0.996
     3   6 C    2.882 --     2 N    1.365     4 N    1.289
     4   7 N    3.583 --     3 C    1.289     5 C    1.195    25 H    0.923
     5   6 C    3.906 --     6 C    1.320    13 N    1.212     4 N    1.195
     6   6 C    3.823 --     5 C    1.320     2 N    1.169     7 C    1.071
     7   6 C    3.949 --     8 O    1.682     9 N    1.097     6 C    1.071
     8   8 O    1.986 --     7 C    1.682     9 N    0.130
     9   7 N    3.512 --    11 C    1.117     7 C    1.097    10 C    0.975
                             8 O    0.130    12 O    0.124
    10   6 C    3.878 --     9 N    0.975    19 H    0.961    21 H    0.949
                            20 H    0.949
    11   6 C    3.954 --    12 O    1.694     9 N    1.117    13 N    1.050
    12   8 O    2.005 --    11 C    1.694     9 N    0.124    13 N    0.109
    13   7 N    3.499 --     5 C    1.212    11 C    1.050    14 C    0.978
                            12 O    0.109
    14   6 C    3.908 --    13 N    0.978    24 H    0.963    22 H    0.961
                            23 H    0.961
    15   1 H    0.975 --     1 C    0.949
    16   1 H    0.978 --     1 C    0.957
    17   1 H    0.979 --     1 C    0.959
    18   1 H    0.066
    19   1 H    0.979 --    10 C    0.961
    20   1 H    0.967 --    10 C    0.949
    21   1 H    0.967 --    10 C    0.949
    22   1 H    0.978 --    14 C    0.961
    23   1 H    0.978 --    14 C    0.961
    24   1 H    0.982 --    14 C    0.963
    25   1 H    0.951 --     4 N    0.923
 ---------------------------------------------------------------------------

molecular dipole:
                 x           y           z       tot (Debye)
 q only:        2.022      -1.700       0.005
   full:        1.816      -1.955       0.012       6.781

           -------------------------------------------------
          | TOTAL ENERGY              -42.090380061201 Eh   |
          | GRADIENT NORM               0.003440591807 Eh/α |
          | HOMO-LUMO GAP               0.943555958916 eV   |
           -------------------------------------------------

 * finished run on 2024/06/05 at 19:57:54.891
