   * xtb version 6.6.1 (8d0f1dd) compiled by 'conda@1efc2f54142f' on 2023-08-01
          program call               : xtb struc.xyz --opt loose --input .xc1 --gfn2

   ID    Z sym.   atoms
    1    7 N      1, 17
    2    6 C      2-6, 8, 9, 11-16, 18-23, 25, 26, 28-33
    3    8 O      7, 10, 24, 27
    4    1 H      34-72
constraining bond 7 36 to    3.9000000 Å, actual value:    1.9963770 Å

          :  Hamiltonian                  GFN2-xTB          :
 * total energy  :   -98.7570933 Eh     change       -0.4035485E-08 Eh
 * total energy  :   -98.9697157 Eh     change       -0.2126224E+00 Eh
 * total energy  :   -99.0985204 Eh     change       -0.1288048E+00 Eh
 * total energy  :   -99.1593126 Eh     change       -0.6079215E-01 Eh
 * total energy  :   -99.1864000 Eh     change       -0.2708745E-01 Eh
 * total energy  :   -99.1974575 Eh     change       -0.1105745E-01 Eh
 * total energy  :   -99.2026810 Eh     change       -0.5223486E-02 Eh
 * total energy  :   -99.2082491 Eh     change       -0.5568140E-02 Eh
 * total energy  :   -99.2183886 Eh     change       -0.1013946E-01 Eh
 * total energy  :   -99.2290425 Eh     change       -0.1065386E-01 Eh
 * total energy  :   -99.2685144 Eh     change       -0.7025572E-04 Eh
 * total energy  :   -99.2686189 Eh     change       -0.1045463E-03 Eh
 * total energy  :   -99.2686881 Eh     change       -0.6914112E-04 Eh
 * total energy  :   -99.2687567 Eh     change       -0.6865742E-04 Eh
 * total energy  :   -99.2688291 Eh     change       -0.7235094E-04 Eh
 * total energy  :   -99.2689184 Eh     change       -0.8928337E-04 Eh
 * total energy  :   -99.2689924 Eh     change       -0.7404058E-04 Eh
 * total energy  :   -99.2690466 Eh     change       -0.5422520E-04 Eh
 * total energy  :   -99.2690897 Eh     change       -0.4306130E-04 Eh
   *** GEOMETRY OPTIMIZATION CONVERGED AFTER 40 ITERATIONS ***

 final structure:
================
72
 xtb: 6.6.1 (8d0f1dd)
N           -1.93530635536208        2.91673425152331        2.23307754369425
C           -1.86915766654230        2.15541414766093        1.24539046067064
C           -2.98571854059935        1.93002446297357        0.26202139934871
C           -3.42780426105072        0.47671128238512        0.31771403756684
C           -4.25669968479462       -0.04075711567704       -0.67206252951792
C           -4.68915289548758       -1.36359786076425       -0.63078018546053
O           -5.48434460963338       -1.94980966299281       -1.55793087714296
C           -6.18455420641210       -1.30520428439903       -2.45613419120771
C           -4.28045340379640       -2.21301408401386        0.43305659575995
O           -4.74480079994582       -3.47457657827551        0.38118300025968
C           -4.47846155974663       -4.35047311469788        1.45402408787624
C           -3.46943643749228       -1.68084109187843        1.42375706333998
C           -3.05400525121459       -0.35694692402840        1.36563464386459
C           -2.38321566167687        2.26295755937688       -1.12850641713615
C           -1.41653544459447        1.20127613246129       -1.68314293403689
C           -0.11095933155187        1.15546449802611       -0.98701467913189
N            0.52963157492116        0.04782339596804       -0.62629887499721
C            1.90854564855444        0.10226851981166       -0.20140311720688
C            2.86640729304929       -0.33452703730636       -1.32714965059593
C            4.29301131969623       -0.14069191749023       -0.89572118549142
C            4.93955673664553        1.06312832292353       -1.12359474483860
C            6.24872609495274        1.25538995798377       -0.71075412250426
C            6.93745492908473        0.24565376504174       -0.05409412828066
O            8.20668628209935        0.31942083562822        0.38666973919106
C            8.93993074661808        1.50412006407315        0.17525837218229
C            6.28023163927297       -0.99226616381230        0.18959089068681
O            7.02203945607137       -1.91778191709286        0.82972483700088
C            6.47068993940061       -3.18711170193890        1.08620648394666
C            4.97066240760755       -1.16067986117819       -0.23190421694552
C           -0.07074060762666       -1.25848057577026       -0.74910273528371
C           -4.23664448435874        2.82107637858906        0.52506703392600
C           -4.88114672729677        2.49567251931491        1.87052725841531
C           -3.93745500181219        4.31543675987841        0.44522951198141
H           -4.56600897506989        0.58499799617834       -1.49359991383415
H           -6.25486850942446       -0.23316856342436       -2.49706278202258
H           -8.84442389383421       -0.23805451654335       -2.49035290193251
H           -6.73657169465172       -1.92633014384512       -3.13707861631163
H           -4.86552737865434       -3.95490228663090        2.39694147163756
H           -4.99746389409532       -5.27527528131103        1.21005093494680
H           -3.40735114661220       -4.55109625331743        1.55106065023258
H           -3.16323740159402       -2.28709066857536        2.26017893651506
H           -2.44647082504867        0.02896159895270        2.16885508863836
H           -3.19591788671270        2.38635257508926       -1.84346086988214
H           -1.86028040784879        3.21738278500391       -1.05953750043008
H           -1.90224448042303        0.22716531783885       -1.68752622044240
H           -1.21708512984937        1.47717147357190       -2.72718569027828
H           -0.95529272873591        1.60196950693990        0.95193782548710
H            0.43896764346105        2.08039185918589       -0.89703444985627
H            2.04445054362963       -0.54831428160858        0.66678621205626
H            2.15500858423308        1.12366799603284        0.09506360630609
H            2.66243770281947        0.27067354061331       -2.21219646171060
H            2.68754877339625       -1.38133249521653       -1.57524008724723
H            4.42886476245356        1.86124299219877       -1.64072993170716
H            6.72821613891574        2.19910263946341       -0.91207915203073
H            8.47060612905873        2.35963875467459        0.67036735284120
H            9.05663055326840        1.71737265391747       -0.89155342278194
H            9.91841449051588        1.32442169536507        0.61633833838064
H            7.25752584403923       -3.75265344689883        1.58154577506868
H            5.60192036643522       -3.12095185232133        1.74918264715244
H            6.18764858905502       -3.69656824122295        0.15983009106677
H            4.46626512031800       -2.09865967802828       -0.05979971368052
H           -0.17908909621587       -1.54876639952897       -1.79659179548117
H           -1.05519228646550       -1.27157421955969       -0.27632325883033
H            0.56051512475874       -1.99010183347829       -0.25110926900314
H           -4.96021565828525        2.57696126766529       -0.26158483559790
H           -4.19950321008194        2.74013294848168        2.67887905940635
H           -5.14778236087428        1.44352332950996        1.93693827338403
H           -5.78637809765519        3.08447106489098        1.99156811087283
H           -3.18399235182191        4.58883711514670        1.17727118932650
H           -3.60169604211592        4.61072921466457       -0.54520970774715
H           -4.84433513886065        4.87132664668989        0.66761041438213
H           -1.10455731140542        3.02067174962875        2.80757707576258

          :  Hamiltonian                  GFN2-xTB          :
         :: total energy             -99.269089704428 Eh    ::
         :: gradient norm              0.002573488011 Eh/a0 ::
         :: HOMO-LUMO gap              0.571745459133 eV    ::
         :: SCC energy              -100.643368317561 Eh    ::
         :: -> dispersion             -0.074999915267 Eh    ::
         :: repulsion energy           1.373004058754 Eh    ::

    * Orbital Energies and Occupations

         #    Occupation            Energy/Eh            Energy/eV
      -------------------------------------------------------------
         1        2.0000           -0.8487755             -23.0964
       ...           ...                  ...                  ...
        78        1.9985           -0.5313023             -14.4575
        79        1.9983           -0.5296638             -14.4129
        80        1.9983           -0.5292023             -14.4003
        81        1.9971           -0.5208376             -14.1727
        82        1.9967           -0.5189955             -14.1226
        83        1.9966           -0.5184348             -14.1073
        84        1.9953           -0.5134517             -13.9717
        85        1.9950           -0.5124328             -13.9440
        86        1.9787           -0.4892957             -13.3144
        87        1.9715           -0.4846287             -13.1874
        88        1.9433           -0.4734766             -12.8840
        89        1.8446           -0.4567009             -12.4275
        90        1.2398           -0.4252727             -11.5723 (HOMO)
        91        0.6040           -0.4042614             -11.0005 (LUMO)
        92        0.4158           -0.3963474             -10.7852
        93        0.0163           -0.3414876              -9.2924
        94        0.0073           -0.3287157              -8.9448
        95        0.0050           -0.3227372              -8.7821
        96        0.0028           -0.3132417              -8.5237
        97        0.0024           -0.3108631              -8.4590
        98        0.0000           -0.2042405              -5.5577
        99        0.0000           -0.1883287              -5.1247
       100                         -0.1377728              -3.7490
       101                         -0.0752394              -2.0474
       ...                                ...                  ...
       171                          0.5757176              15.6661
      -------------------------------------------------------------
                  HL-Gap            0.0210113 Eh            0.5717 eV

     #   Z          covCN         q      C6AA      α(0)
     1   7 N        1.774    -0.269    27.804     7.808
     2   6 C        2.827     0.100    25.777     8.320
     3   6 C        3.907     0.006    20.418     6.423
     4   6 C        2.973     0.005    27.913     8.666
     5   6 C        2.919    -0.068    29.704     8.937
     6   6 C        2.869     0.103    25.714     8.312
     7   8 O        1.710    -0.105    15.910     5.385
     8   6 C        2.734     0.036    27.169     8.534
     9   6 C        2.862     0.134    25.058     8.205
    10   8 O        1.706    -0.231    17.832     5.701
    11   6 C        3.645     0.025    20.491     6.506
    12   6 C        2.913    -0.074    29.835     8.957
    13   6 C        2.922    -0.047    29.179     8.858
    14   6 C        3.813    -0.065    21.744     6.637
    15   6 C        3.802    -0.069    21.824     6.651
    16   6 C        2.843     0.004    27.921     8.660
    17   7 N        2.729     0.009    21.110     6.824
    18   6 C        3.755    -0.016    20.922     6.522
    19   6 C        3.808    -0.071    21.843     6.653
    20   6 C        2.969    -0.000    28.037     8.685
    21   6 C        2.922    -0.049    29.212     8.863
    22   6 C        2.914    -0.067    29.680     8.933
    23   6 C        2.865     0.134    25.077     8.208
    24   8 O        1.706    -0.222    17.676     5.676
    25   6 C        3.645     0.025    20.491     6.506
    26   6 C        2.863     0.133    25.087     8.210
    27   8 O        1.706    -0.225    17.725     5.684
    28   6 C        3.645     0.027    20.453     6.500
    29   6 C        2.919    -0.080    29.988     8.980
    30   6 C        3.700    -0.069    21.986     6.706
    31   6 C        3.853    -0.007    20.671     6.467
    32   6 C        3.756    -0.119    22.832     6.813
    33   6 C        3.755    -0.120    22.847     6.815
    34   1 H        0.926     0.057     2.230     2.335
    35   1 H        0.926     0.076     2.020     2.222
    36   1 H        0.000    -0.141    18.071     7.773
    37   1 H        0.926     0.103     1.756     2.072
    38   1 H        0.924     0.058     2.227     2.334
    39   1 H        0.925     0.084     1.942     2.179
    40   1 H        0.924     0.050     2.315     2.379
    41   1 H        0.926     0.058     2.220     2.330
    42   1 H        0.926     0.048     2.349     2.397
    43   1 H        0.925     0.061     2.192     2.315
    44   1 H        0.924     0.057     2.240     2.341
    45   1 H        0.925     0.063     2.163     2.300
    46   1 H        0.923     0.080     1.977     2.199
    47   1 H        0.922     0.005     2.971     2.695
    48   1 H        0.926     0.069     2.095     2.263
    49   1 H        0.924     0.067     2.123     2.278
    50   1 H        0.924     0.068     2.109     2.271
    51   1 H        0.924     0.055     2.259     2.351
    52   1 H        0.924     0.055     2.255     2.348
    53   1 H        0.926     0.045     2.381     2.413
    54   1 H        0.926     0.059     2.213     2.326
    55   1 H        0.924     0.054     2.267     2.355
    56   1 H        0.924     0.056     2.244     2.343
    57   1 H        0.925     0.083     1.953     2.185
    58   1 H        0.925     0.082     1.959     2.189
    59   1 H        0.924     0.048     2.339     2.392
    60   1 H        0.924     0.052     2.291     2.367
    61   1 H        0.926     0.047     2.361     2.403
    62   1 H        0.924     0.076     2.025     2.225
    63   1 H        0.924     0.075     2.027     2.227
    64   1 H        0.925     0.080     1.982     2.201
    65   1 H        0.924     0.037     2.491     2.468
    66   1 H        0.925     0.068     2.104     2.268
    67   1 H        0.925     0.033     2.541     2.493
    68   1 H        0.925     0.053     2.281     2.362
    69   1 H        0.925     0.062     2.173     2.305
    70   1 H        0.925     0.036     2.508     2.477
    71   1 H        0.925     0.056     2.245     2.343
    72   1 H        0.860     0.157     1.353     1.822

Wiberg/Mayer (AO) data.
largest (>0.10) Wiberg bond orders for each atom

     #   Z sym  total        # sym  WBO       # sym  WBO       # sym  WBO
 ---------------------------------------------------------------------------
     1   7 N    3.038 --     2 C    1.957    72 H    0.942
     2   6 C    3.929 --     1 N    1.957     3 C    0.993    47 H    0.902
     3   6 C    3.977 --     2 C    0.993     4 C    0.973    14 C    0.956
                            31 C    0.942
     4   6 C    3.968 --     5 C    1.398    13 C    1.395     3 C    0.973
     5   6 C    3.915 --     4 C    1.398     6 C    1.365    34 H    0.956
     6   6 C    3.892 --     5 C    1.365     9 C    1.228     7 O    1.052
     7   8 O    2.423 --     8 C    1.266     6 C    1.052
     8   6 C    3.354 --     7 O    1.266    37 H    0.964    35 H    0.963
     9   6 C    3.892 --    12 C    1.383     6 C    1.228    10 O    1.110
    10   8 O    2.268 --     9 C    1.110    11 C    0.973
    11   6 C    3.929 --    39 H    0.977    40 H    0.975    38 H    0.974
                            10 O    0.973
    12   6 C    3.962 --    13 C    1.412     9 C    1.383    41 H    0.963
    13   6 C    3.922 --    12 C    1.412     4 C    1.395    42 H    0.962
    14   6 C    3.973 --    15 C    0.982    44 H    0.972    43 H    0.968
                             3 C    0.956
    15   6 C    3.987 --    16 C    1.059    14 C    0.982    45 H    0.962
                            46 H    0.927
    16   6 C    3.578 --    17 N    1.393    15 C    1.059    48 H    0.958
    17   7 N    3.469 --    16 C    1.393    30 C    0.999    18 C    0.988
    18   6 C    3.955 --    17 N    0.988    50 H    0.968    19 C    0.966
                            49 H    0.964
    19   6 C    3.976 --    20 C    1.008    51 H    0.972    52 H    0.972
                            18 C    0.966
    20   6 C    3.944 --    21 C    1.409    29 C    1.380    19 C    1.008
    21   6 C    3.950 --    22 C    1.417    20 C    1.409    53 H    0.968
    22   6 C    3.959 --    21 C    1.417    23 C    1.383    54 H    0.963
    23   6 C    3.895 --    22 C    1.383    26 C    1.219    24 O    1.111
    24   8 O    2.255 --    23 C    1.111    25 C    0.976
    25   6 C    3.928 --    57 H    0.977    24 O    0.976    55 H    0.973
                            56 H    0.972
    26   6 C    3.899 --    29 C    1.395    23 C    1.219    27 O    1.104
    27   8 O    2.255 --    26 C    1.104    28 C    0.979
    28   6 C    3.932 --    27 O    0.979    58 H    0.977    59 H    0.973
                            60 H    0.973
    29   6 C    3.959 --    26 C    1.395    20 C    1.380    61 H    0.963
    30   6 C    3.959 --    17 N    0.999    64 H    0.977    62 H    0.966
                            63 H    0.965
    31   6 C    3.974 --    33 C    1.009    32 C    1.008    65 H    0.961
                             3 C    0.942
    32   6 C    3.980 --    31 C    1.008    67 H    0.982    68 H    0.981
                            66 H    0.975
    33   6 C    3.983 --    31 C    1.009    70 H    0.983    71 H    0.980
                            69 H    0.976
    34   1 H    0.996 --     5 C    0.956
    35   1 H    0.994 --     8 C    0.963
    36   1 H    0.055
    37   1 H    0.989 --     8 C    0.964
    38   1 H    0.994 --    11 C    0.974
    39   1 H    0.992 --    11 C    0.977
    40   1 H    0.995 --    11 C    0.975
    41   1 H    0.995 --    12 C    0.963
    42   1 H    0.997 --    13 C    0.962
    43   1 H    0.995 --    14 C    0.968
    44   1 H    0.996 --    14 C    0.972
    45   1 H    0.995 --    15 C    0.962
    46   1 H    0.969 --    15 C    0.927
    47   1 H    0.988 --     2 C    0.902
    48   1 H    0.995 --    16 C    0.958
    49   1 H    0.991 --    18 C    0.964
    50   1 H    0.994 --    18 C    0.968
    51   1 H    0.996 --    19 C    0.972
    52   1 H    0.996 --    19 C    0.972
    53   1 H    0.997 --    21 C    0.968
    54   1 H    0.995 --    22 C    0.963
    55   1 H    0.992 --    25 C    0.973
    56   1 H    0.991 --    25 C    0.972
    57   1 H    0.992 --    25 C    0.977
    58   1 H    0.993 --    28 C    0.977
    59   1 H    0.993 --    28 C    0.973
    60   1 H    0.993 --    28 C    0.973
    61   1 H    0.997 --    29 C    0.963
    62   1 H    0.984 --    30 C    0.966
    63   1 H    0.988 --    30 C    0.965
    64   1 H    0.993 --    30 C    0.977
    65   1 H    0.993 --    31 C    0.961
    66   1 H    0.992 --    32 C    0.975
    67   1 H    0.997 --    32 C    0.982
    68   1 H    0.994 --    32 C    0.981
    69   1 H    0.993 --    33 C    0.976
    70   1 H    0.997 --    33 C    0.983
    71   1 H    0.994 --    33 C    0.980
    72   1 H    0.970 --     1 N    0.942
 ---------------------------------------------------------------------------

molecular dipole:
                 x           y           z       tot (Debye)
 q only:        1.575      -0.480      -0.392
   full:        1.776      -0.594      -0.537       4.953

           -------------------------------------------------
          | TOTAL ENERGY              -99.269089704428 Eh   |
          | GRADIENT NORM               0.002573488011 Eh/α |
          | HOMO-LUMO GAP               0.571745459133 eV   |
           -------------------------------------------------

 * finished run on 2024/04/06 at 11:12:47.049
