   * xtb version 6.6.1 (8d0f1dd) compiled by 'conda@1efc2f54142f' on 2023-08-01
          program call               : xtb struc.xyz --opt loose --input .xc1 --gfn2

   ID    Z sym.   atoms
    1    6 C      1, 3, 5-7, 10, 11, 14
    2    7 N      2, 4, 9, 13
    3    8 O      8, 12
    4    1 H      15-25
constraining bond 11 24 to    5.1400000 Å, actual value:    2.4695195 Å

          :  Hamiltonian                  GFN2-xTB          :
 * total energy  :   -29.5143971 Eh     change       -0.6650680E-10 Eh
 * total energy  :   -34.1240820 Eh     change       -0.4609685E+01 Eh
 * total energy  :   -37.6050682 Eh     change       -0.3480986E+01 Eh
 * total energy  :   -39.8398882 Eh     change       -0.2234820E+01 Eh
 * total energy  :   -41.0876918 Eh     change       -0.1247804E+01 Eh
 * total energy  :   -41.6200335 Eh     change       -0.5323417E+00 Eh
 * total energy  :   -41.7808922 Eh     change       -0.1608587E+00 Eh
 * total energy  :   -41.8543346 Eh     change       -0.7344243E-01 Eh
 * total energy  :   -41.8982112 Eh     change       -0.4387657E-01 Eh
 * total energy  :   -41.9178518 Eh     change       -0.1964066E-01 Eh
 * total energy  :   -42.1011976 Eh     change       -0.1369174E-02 Eh
 * total energy  :   -42.1019762 Eh     change       -0.7785417E-03 Eh
 * total energy  :   -42.1024204 Eh     change       -0.4441953E-03 Eh
 * total energy  :   -42.1027180 Eh     change       -0.2976654E-03 Eh
 * total energy  :   -42.1026299 Eh     change        0.8815455E-04 Eh
 * total energy  :   -42.1028332 Eh     change       -0.2033696E-03 Eh
 * total energy  :   -42.1028443 Eh     change       -0.1108818E-04 Eh
 * total energy  :   -42.1028958 Eh     change       -0.5150888E-04 Eh
 * total energy  :   -42.1029171 Eh     change       -0.2125953E-04 Eh
   *** GEOMETRY OPTIMIZATION CONVERGED AFTER 52 ITERATIONS ***

 final structure:
================
25
 xtb: 6.6.1 (8d0f1dd)
C            3.29846446755669        1.29175756853966        0.04793060657004
N            2.38303802504651        0.18152360491183        0.03695797388581
C            2.70024550404082       -1.10854665576026        0.05021664061408
N            1.58002173762549       -1.86086581455407        0.04289110564533
C            0.50182793354516       -1.01028531887417        0.02297240544872
C            1.01296368771112        0.28272174344760        0.01938919609195
C            0.16218946042533        1.45146999542440       -0.00624896182562
O            0.53704111111993        2.60230907817624       -0.00936138784303
N           -1.18969947161865        1.09098808068026       -0.02973073570203
C           -2.16588888218769        2.17550764511451       -0.07161557769735
C           -1.73839048963584       -0.16154333790116       -0.03132790864897
O           -2.91588932975137       -0.37713013647763       -0.06699473366296
N           -0.82106605487941       -1.29467319535965        0.01194104911044
C           -1.35217471089260       -2.52700643114907        0.03357466829461
H            3.88880575404379        1.28590654087109        0.96454697502303
H            3.97434868685838        1.23384251669638       -0.80503046920227
H            2.72538598321024        2.21708340851497       -0.00417321259640
H            3.69820235552713       -1.50101063116966        0.06332035966700
H           -1.62203291647454        3.11672666984845       -0.06358936082006
H           -2.76829305940953        2.09456205315912       -0.97534567530357
H           -2.82548034209350        2.11193767600417        0.79240516941711
H           -0.72317207396712       -3.39507140083599        0.04334173783252
H           -2.42292476396457       -2.60369378957554        0.02373336822600
H           -4.31560978421075       -4.60815740116970       -0.10517616507392
H            1.55851868647486       -2.87011392696163        0.04654455045028

          :  Hamiltonian                  GFN2-xTB          :
         :: total energy             -42.102917091642 Eh    ::
         :: gradient norm              0.002366101635 Eh/a0 ::
         :: HOMO-LUMO gap              0.030571967234 eV    ::
         :: SCC energy               -42.625656296604 Eh    ::
         :: -> dispersion             -0.022549254799 Eh    ::
         :: repulsion energy           0.522668890895 Eh    ::

    * Orbital Energies and Occupations

         #    Occupation            Energy/Eh            Energy/eV
      -------------------------------------------------------------
         1        2.0000           -0.9159375             -24.9239
       ...           ...                  ...                  ...
        25        2.0000           -0.6679656             -18.1763
        26        2.0000           -0.6673990             -18.1609
        27        2.0000           -0.6588456             -17.9281
        28        1.9999           -0.6346991             -17.2710
        29        1.9998           -0.6313340             -17.1795
        30        1.9998           -0.6274851             -17.0747
        31        1.9997           -0.6188876             -16.8408
        32        1.9987           -0.5982704             -16.2798
        33        1.9976           -0.5882721             -16.0077
        34        1.9969           -0.5840184             -15.8919
        35        1.9884           -0.5629449             -15.3185
        36        1.9877           -0.5621287             -15.2963
        37        0.9760           -0.4807846             -13.0828 (HOMO)
        38        0.9405           -0.4796611             -13.0522 (LUMO)
        39        0.1024           -0.4353212             -11.8457
        40        0.0105           -0.3985487             -10.8451
        41        0.0020           -0.3725006             -10.1363
        42        0.0000           -0.2875155              -7.8237
        43                         -0.2122229              -5.7749
        44                         -0.2000480              -5.4436
        45                         -0.1500215              -4.0823
        46                         -0.1335679              -3.6346
        47                         -0.0667346              -1.8159
        48                         -0.0391885              -1.0664
       ...                                ...                  ...
        67                          0.5555161              15.1164
      -------------------------------------------------------------
                  HL-Gap            0.0011235 Eh            0.0306 eV

     #   Z          covCN         q      C6AA      α(0)
     1   6 C        3.691    -0.097    22.538     6.793
     2   7 N        2.831     0.084    19.778     6.605
     3   6 C        3.051     0.053    26.754     8.483
     4   7 N        2.789    -0.057    22.347     7.021
     5   6 C        3.038     0.092    25.914     8.350
     6   6 C        3.113    -0.017    28.264     8.709
     7   6 C        2.763     0.266    22.505     7.769
     8   8 O        0.858    -0.367    21.040     6.150
     9   7 N        2.744    -0.079    22.767     7.087
    10   6 C        3.713    -0.064    21.862     6.681
    11   6 C        2.734     0.310    21.729     7.632
    12   8 O        0.859    -0.340    20.517     6.073
    13   7 N        2.735     0.009    21.107     6.823
    14   6 C        2.797    -0.060    29.478     8.894
    15   1 H        0.924     0.109     1.709     2.045
    16   1 H        0.925     0.108     1.717     2.049
    17   1 H        0.925     0.139     1.465     1.893
    18   1 H        0.926     0.127     1.557     1.952
    19   1 H        0.925     0.116     1.646     2.006
    20   1 H        0.925     0.098     1.803     2.100
    21   1 H        0.925     0.098     1.800     2.098
    22   1 H        0.926     0.086     1.918     2.166
    23   1 H        0.926     0.131     1.529     1.934
    24   1 H        0.000     0.024     6.646     4.714
    25   1 H        0.860     0.229     0.970     1.543

Wiberg/Mayer (AO) data.
largest (>0.10) Wiberg bond orders for each atom

     #   Z sym  total        # sym  WBO       # sym  WBO       # sym  WBO
 ---------------------------------------------------------------------------
     1   6 C    3.912 --     2 N    0.984    16 H    0.960    17 H    0.959
                            15 H    0.958
     2   7 N    3.670 --     3 C    1.384     6 C    1.165     1 C    0.984
     3   6 C    3.839 --     2 N    1.384     4 N    1.287    18 H    0.952
     4   7 N    3.552 --     3 C    1.287     5 C    1.165    25 H    0.918
     5   6 C    3.885 --     6 C    1.337    13 N    1.166     4 N    1.165
     6   6 C    3.857 --     5 C    1.337     2 N    1.165     7 C    1.076
     7   6 C    3.916 --     8 O    1.672     9 N    1.081     6 C    1.076
     8   8 O    1.985 --     7 C    1.672     9 N    0.138
     9   7 N    3.569 --    11 C    1.170     7 C    1.081    10 C    0.963
                            12 O    0.151     8 O    0.138
    10   6 C    3.912 --    19 H    0.968    21 H    0.966    20 H    0.966
                             9 N    0.963
    11   6 C    3.924 --    12 O    1.724     9 N    1.170    13 N    0.934
    12   8 O    2.052 --    11 C    1.724     9 N    0.151
    13   7 N    3.623 --    14 C    1.298     5 C    1.166    11 C    0.934
    14   6 C    3.337 --    13 N    1.298    22 H    0.970    23 H    0.958
    15   1 H    0.985 --     1 C    0.958
    16   1 H    0.985 --     1 C    0.960
    17   1 H    0.980 --     1 C    0.959
    18   1 H    0.983 --     3 C    0.952
    19   1 H    0.985 --    10 C    0.968
    20   1 H    0.987 --    10 C    0.966
    21   1 H    0.987 --    10 C    0.966
    22   1 H    0.992 --    14 C    0.970
    23   1 H    0.982 --    14 C    0.958
    24   1 H    0.002
    25   1 H    0.947 --     4 N    0.918
 ---------------------------------------------------------------------------

molecular dipole:
                 x           y           z       tot (Debye)
 q only:        2.653      -1.837       0.067
   full:        2.942      -2.415       0.076       9.676

           -------------------------------------------------
          | TOTAL ENERGY              -42.102917091642 Eh   |
          | GRADIENT NORM               0.002366101635 Eh/α |
          | HOMO-LUMO GAP               0.030571967234 eV   |
           -------------------------------------------------

 * finished run on 2024/06/05 at 19:58:03.079
