   * xtb version 6.6.1 (8d0f1dd) compiled by 'conda@1efc2f54142f' on 2023-08-01
          program call               : xtb struc.xyz --opt loose --input .xc1 --gfn2

   ID    Z sym.   atoms
    1    7 N      1, 17
    2    6 C      2-6, 8, 9, 11-16, 18-23, 25, 26, 28-33
    3    8 O      7, 10, 24, 27
    4    1 H      34-72
constraining bond 20 50 to    3.7133300 Å, actual value:    2.6663396 Å

          :  Hamiltonian                  GFN2-xTB          :
 * total energy  :   -99.5998590 Eh     change       -0.4035485E-08 Eh
 * total energy  :   -99.8906923 Eh     change       -0.2908333E+00 Eh
 * total energy  :  -100.2631285 Eh     change       -0.3724362E+00 Eh
 * total energy  :  -100.4855523 Eh     change       -0.2224237E+00 Eh
 * total energy  :  -100.5130473 Eh     change       -0.2749502E-01 Eh
 * total energy  :  -100.6046187 Eh     change       -0.9157141E-01 Eh
 * total energy  :  -100.5226535 Eh     change        0.8196519E-01 Eh
 * total energy  :  -100.6707614 Eh     change       -0.1481078E+00 Eh
 * total energy  :  -100.6866157 Eh     change       -0.1585434E-01 Eh
 * total energy  :  -100.7031041 Eh     change       -0.1648839E-01 Eh
 * total energy  :  -100.7672335 Eh     change       -0.1221278E-03 Eh
 * total energy  :  -100.7673337 Eh     change       -0.1002715E-03 Eh
 * total energy  :  -100.7674197 Eh     change       -0.8594600E-04 Eh
 * total energy  :  -100.7674865 Eh     change       -0.6679806E-04 Eh
 * total energy  :  -100.7675804 Eh     change       -0.9394320E-04 Eh
 * total energy  :  -100.7676707 Eh     change       -0.9028561E-04 Eh
 * total energy  :  -100.7677418 Eh     change       -0.7107227E-04 Eh
 * total energy  :  -100.7678100 Eh     change       -0.6818653E-04 Eh
 * total energy  :  -100.7678396 Eh     change       -0.2963758E-04 Eh
   *** GEOMETRY OPTIMIZATION CONVERGED AFTER 68 ITERATIONS ***

 final structure:
================
72
 xtb: 6.6.1 (8d0f1dd)
N           -0.79177957114375        2.27754332877383        1.99681090828557
C           -1.07662771392883        1.55348761788550        1.01871725765305
C           -2.37538078606385        1.62126112059701        0.26268657174774
C           -3.06189131669505        0.26740631857532        0.31507731110759
C           -4.10712623368506       -0.01957853805716       -0.56451707253640
C           -4.76920837970594       -1.23570352331781       -0.53108304349308
O           -5.77928700599230       -1.59409115561588       -1.35002704400489
C           -6.26173557771124       -0.66755686503067       -2.29433000032251
C           -4.38568767186141       -2.21555427905561        0.42459659784544
O           -5.08082282944780       -3.36924638260078        0.38313858540348
C           -4.83193815227720       -4.35592540024810        1.35741471067316
C           -3.35765230001665       -1.91843446071791        1.30574681118371
C           -2.70567507290783       -0.69315451582081        1.25038938677355
C           -1.99192709557813        1.99056225872861       -1.19556911962425
C           -1.39477895319157        0.84758322537324       -2.03483544752786
C           -0.00764082902331        0.48290837463858       -1.64704388911413
N            0.45703118645657       -0.75590977585094       -1.50627469231289
C            1.75877983525939       -1.07006261342673       -1.42220979515009
C            2.84241563350606       -0.10375144252597       -1.57744586624347
C            3.18341709936668        0.69811403486163       -0.18404880683323
C            4.04246607336321        1.83498203622566       -0.59904169290740
C            5.39806852018303        1.80215476752391       -0.51659668505789
C            6.06450719228711        0.72878898274003        0.09977930811670
O            7.38582033469365        0.57071440074930        0.17149199171879
C            8.24080134669017        1.50225484220231       -0.45409213039400
C            5.28391452755962       -0.28094307416860        0.76760470165471
O            6.02312153177131       -1.16975026632919        1.46449042059893
C            5.36650467315673       -2.19808821147044        2.16653322487588
C            3.92758968399129       -0.25853645257202        0.68301570729038
C           -0.49241034569781       -1.85616275815774       -1.44209032780841
C           -3.37124172174037        2.68116287059318        0.82191916408498
C           -3.78626403047310        2.36332618033624        2.25621236509558
C           -2.83780182551670        4.10918151379796        0.74743297574701
H           -4.41482999138556        0.72666684294907       -1.27787788783440
H           -6.64666756312478        0.23515256144574       -1.81047944856522
H           -7.07511192415883       -1.17328511084153       -2.81061832912260
H           -5.48909957075101       -0.39371628111540       -3.02042579525271
H           -4.99023842578443       -3.96940356473163        2.36840389361458
H           -5.54879769641188       -5.14999464865372        1.15830165777266
H           -3.81644417047282       -4.75599178800458        1.27343599823282
H           -3.05843697116053       -2.63479441192424        2.05344259495627
H           -1.92851780678476       -0.48727348528948        1.97044776174468
H           -2.88536104627851        2.34979024205225       -1.70604510621060
H           -1.27888075664583        2.81550643421865       -1.16591813896597
H           -2.06468210532151       -0.00838705620411       -2.01305393517730
H           -1.36042175839177        1.21398677337579       -3.06969510081113
H           -0.37938857708579        0.82187275097253        0.57339491072556
H            0.71228422021958        1.28408419096134       -1.65274199246289
H            1.99588257752233       -2.08477635432214       -1.15849014369311
H            2.49243583097630        0.91581105987620        0.12025454074203
H            2.59602531648094        0.65834809998038       -2.31715234407060
H            3.75902157409230       -0.60447419234739       -1.87777348019484
H            3.55080516987779        2.68401555367648       -1.04966482073929
H            5.97111618060284        2.63005151447594       -0.90281851275677
H            8.15393919278203        2.49242961843305        0.00150102574456
H            8.03673113921106        1.57257923268214       -1.52626059341274
H            9.24931040919758        1.12281428217676       -0.30088089893099
H            6.15649782555919       -2.80940541803361        2.59794112640616
H            4.73954334383368       -1.79632132676694        2.96844788080167
H            4.75608681272789       -2.81310400035750        1.49746040160568
H            3.33021493586949       -0.99462281986744        1.19656174493484
H           -0.96169100177027       -2.00656748404063       -2.41413224567216
H           -1.26441890486959       -1.64869932563545       -0.69948204235864
H            0.02349978997704       -2.77248796605262       -1.16741351395203
H           -4.26712283833682        2.61836920554704        0.19256602377102
H           -2.93062918996160        2.44618077035745        2.91902585954599
H           -4.20043987788755        1.36096756200589        2.33432327028690
H           -4.54406557495015        3.07174883622558        2.58063458416976
H           -1.92246666929013        4.19779298165360        1.32418569126455
H           -2.64981625831548        4.42115255899629       -0.27626412073247
H           -3.57500786729997        4.78668492610631        1.17054203207665
H            0.12809759893508        2.17245659987194        2.41372990866068

          :  Hamiltonian                  GFN2-xTB          :
         :: total energy            -100.767839603317 Eh    ::
         :: gradient norm              0.001551269084 Eh/a0 ::
         :: HOMO-LUMO gap              1.032891274195 eV    ::
         :: SCC energy              -100.745985201005 Eh    ::
         :: -> dispersion             -0.076888556991 Eh    ::
         :: repulsion energy           1.506610110189 Eh    ::

    * Orbital Energies and Occupations

         #    Occupation            Energy/Eh            Energy/eV
      -------------------------------------------------------------
         1        2.0000           -0.8236755             -22.4134
       ...           ...                  ...                  ...
        78        1.9982           -0.5293977             -14.4056
        79        1.9980           -0.5279512             -14.3663
        80        1.9979           -0.5274021             -14.3513
        81        1.9970           -0.5217129             -14.1965
        82        1.9969           -0.5211937             -14.1824
        83        1.9950           -0.5136398             -13.9768
        84        1.9944           -0.5117438             -13.9253
        85        1.9931           -0.5083712             -13.8335
        86        1.9781           -0.4900321             -13.3345
        87        1.9680           -0.4839351             -13.1685
        88        1.9328           -0.4718827             -12.8406
        89        1.8578           -0.4593910             -12.5007
        90        1.6551           -0.4435360             -12.0692 (HOMO)
        91        0.6078           -0.4055780             -11.0363 (LUMO)
        92        0.0181           -0.3443566              -9.3704
        93        0.0108           -0.3360593              -9.1446
        94        0.0033           -0.3170960              -8.6286
        95        0.0031           -0.3163377              -8.6080
        96        0.0026           -0.3134572              -8.5296
        97        0.0000           -0.2364325              -6.4337
        98        0.0000           -0.1908742              -5.1940
        99                         -0.1108285              -3.0158
       100                         -0.0764673              -2.0808
       101                         -0.0735173              -2.0005
       ...                                ...                  ...
       171                          1.1311914              30.7813
      -------------------------------------------------------------
                  HL-Gap            0.0379581 Eh            1.0329 eV

     #   Z          covCN         q      C6AA      α(0)
     1   7 N        1.774    -0.272    27.882     7.819
     2   6 C        2.828     0.102    25.728     8.312
     3   6 C        3.907     0.007    20.404     6.421
     4   6 C        2.974     0.003    27.963     8.674
     5   6 C        2.920    -0.080    29.998     8.982
     6   6 C        2.862     0.129    25.169     8.223
     7   8 O        1.706    -0.229    17.801     5.696
     8   6 C        3.645     0.027    20.448     6.499
     9   6 C        2.864     0.129    25.178     8.225
    10   8 O        1.706    -0.228    17.774     5.692
    11   6 C        3.645     0.026    20.464     6.502
    12   6 C        2.913    -0.074    29.847     8.959
    13   6 C        2.921    -0.052    29.300     8.877
    14   6 C        3.812    -0.064    21.715     6.633
    15   6 C        3.801    -0.068    21.800     6.647
    16   6 C        2.860    -0.039    28.964     8.821
    17   7 N        2.730     0.075    19.933     6.631
    18   6 C        2.863    -0.050    29.227     8.862
    19   6 C        3.791    -0.065    21.749     6.642
    20   6 C        3.846    -0.041    21.271     6.560
    21   6 C        2.912    -0.045    29.117     8.848
    22   6 C        2.899    -0.063    29.559     8.914
    23   6 C        2.865     0.139    24.963     8.190
    24   8 O        1.706    -0.194    17.242     5.606
    25   6 C        3.646     0.019    20.583     6.520
    26   6 C        2.850     0.134    25.073     8.207
    27   8 O        1.706    -0.235    17.887     5.710
    28   6 C        3.646     0.027    20.459     6.500
    29   6 C        2.907    -0.089    30.238     9.017
    30   6 C        3.718    -0.075    22.064     6.710
    31   6 C        3.853    -0.007    20.670     6.466
    32   6 C        3.756    -0.117    22.800     6.808
    33   6 C        3.755    -0.119    22.842     6.815
    34   1 H        0.926     0.053     2.278     2.360
    35   1 H        0.924     0.054     2.267     2.354
    36   1 H        0.925     0.081     1.965     2.192
    37   1 H        0.924     0.047     2.356     2.400
    38   1 H        0.924     0.055     2.253     2.347
    39   1 H        0.925     0.082     1.963     2.191
    40   1 H        0.924     0.049     2.327     2.386
    41   1 H        0.926     0.053     2.285     2.364
    42   1 H        0.926     0.041     2.441     2.443
    43   1 H        0.925     0.056     2.241     2.341
    44   1 H        0.924     0.051     2.302     2.373
    45   1 H        0.925     0.057     2.232     2.336
    46   1 H        0.923     0.066     2.135     2.285
    47   1 H        0.923     0.006     2.958     2.690
    48   1 H        0.926     0.057     2.231     2.336
    49   1 H        0.926     0.052     2.300     2.371
    50   1 H        0.930     0.107     1.719     2.050
    51   1 H        0.924     0.061     2.188     2.313
    52   1 H        0.925     0.064     2.157     2.297
    53   1 H        0.926     0.051     2.312     2.378
    54   1 H        0.926     0.063     2.160     2.298
    55   1 H        0.924     0.064     2.148     2.292
    56   1 H        0.924     0.062     2.178     2.308
    57   1 H        0.925     0.089     1.892     2.151
    58   1 H        0.925     0.082     1.955     2.186
    59   1 H        0.924     0.051     2.305     2.374
    60   1 H        0.924     0.047     2.358     2.401
    61   1 H        0.926     0.047     2.352     2.398
    62   1 H        0.925     0.081     1.964     2.192
    63   1 H        0.924     0.082     1.962     2.190
    64   1 H        0.925     0.080     1.979     2.200
    65   1 H        0.924     0.037     2.490     2.468
    66   1 H        0.925     0.066     2.131     2.283
    67   1 H        0.925     0.035     2.518     2.482
    68   1 H        0.925     0.051     2.311     2.377
    69   1 H        0.925     0.064     2.158     2.297
    70   1 H        0.925     0.036     2.503     2.474
    71   1 H        0.925     0.054     2.274     2.358
    72   1 H        0.860     0.153     1.381     1.841

Wiberg/Mayer (AO) data.
largest (>0.10) Wiberg bond orders for each atom

     #   Z sym  total        # sym  WBO       # sym  WBO       # sym  WBO
 ---------------------------------------------------------------------------
     1   7 N    3.020 --     2 C    1.952    72 H    0.943
     2   6 C    3.934 --     1 N    1.952     3 C    0.994    47 H    0.914
     3   6 C    3.973 --     2 C    0.994     4 C    0.975    14 C    0.953
                            31 C    0.942
     4   6 C    3.946 --    13 C    1.409     5 C    1.369     3 C    0.975
     5   6 C    3.961 --     6 C    1.399     4 C    1.369    34 H    0.958
     6   6 C    3.902 --     5 C    1.399     9 C    1.221     7 O    1.100
     7   8 O    2.253 --     6 C    1.100     8 C    0.978
     8   6 C    3.932 --     7 O    0.978    36 H    0.977    37 H    0.973
                            35 H    0.973
     9   6 C    3.898 --    12 C    1.389     6 C    1.221    10 O    1.103
    10   8 O    2.251 --     9 C    1.103    11 C    0.977
    11   6 C    3.930 --    10 O    0.977    39 H    0.977    38 H    0.973
                            40 H    0.973
    12   6 C    3.961 --    13 C    1.405     9 C    1.389    41 H    0.964
    13   6 C    3.951 --     4 C    1.409    12 C    1.405    42 H    0.963
    14   6 C    3.975 --    15 C    0.986    44 H    0.972    43 H    0.968
                             3 C    0.953
    15   6 C    3.986 --    16 C    1.049    14 C    0.986    45 H    0.962
                            46 H    0.938
    16   6 C    3.673 --    17 N    1.349    15 C    1.049    48 H    0.957
                            18 C    0.189
    17   7 N    3.711 --    16 C    1.349    18 C    1.297    30 C    0.985
    18   6 C    3.678 --    17 N    1.297    19 C    1.110    49 H    0.963
                            16 C    0.189
    19   6 C    3.921 --    18 C    1.110    52 H    0.972    51 H    0.958
                            20 C    0.798
    20   6 C    3.959 --    21 C    1.063    29 C    1.056    50 H    0.958
                            19 C    0.798
    21   6 C    3.758 --    22 C    1.604    20 C    1.063    53 H    0.969
    22   6 C    3.972 --    21 C    1.604    23 C    1.274    54 H    0.959
    23   6 C    3.699 --    22 C    1.274    24 O    1.158    26 C    1.140
    24   8 O    2.269 --    23 C    1.158    25 C    0.969
    25   6 C    3.922 --    57 H    0.976    56 H    0.972    55 H    0.970
                            24 O    0.969
    26   6 C    3.928 --    29 C    1.564    23 C    1.140    27 O    1.092
    27   8 O    2.258 --    26 C    1.092    28 C    0.978    29 C    0.104
    28   6 C    3.933 --    27 O    0.978    58 H    0.977    60 H    0.974
                            59 H    0.974
    29   6 C    3.812 --    26 C    1.564    20 C    1.056    61 H    0.964
                            27 O    0.104
    30   6 C    3.954 --    17 N    0.985    64 H    0.976    62 H    0.969
                            63 H    0.965
    31   6 C    3.971 --    32 C    1.008    33 C    1.008    65 H    0.960
                             3 C    0.942
    32   6 C    3.979 --    31 C    1.008    67 H    0.981    68 H    0.981
                            66 H    0.975
    33   6 C    3.980 --    31 C    1.008    70 H    0.982    71 H    0.980
                            69 H    0.975
    34   1 H    0.996 --     5 C    0.958
    35   1 H    0.993 --     8 C    0.973
    36   1 H    0.993 --     8 C    0.977
    37   1 H    0.994 --     8 C    0.973
    38   1 H    0.992 --    11 C    0.973
    39   1 H    0.993 --    11 C    0.977
    40   1 H    0.993 --    11 C    0.973
    41   1 H    0.995 --    12 C    0.964
    42   1 H    0.998 --    13 C    0.963
    43   1 H    0.995 --    14 C    0.968
    44   1 H    0.996 --    14 C    0.972
    45   1 H    0.996 --    15 C    0.962
    46   1 H    0.975 --    15 C    0.938
    47   1 H    0.982 --     2 C    0.914
    48   1 H    0.996 --    16 C    0.957
    49   1 H    0.996 --    18 C    0.963
    50   1 H    0.981 --    20 C    0.958
    51   1 H    0.990 --    19 C    0.958
    52   1 H    0.992 --    19 C    0.972
    53   1 H    0.997 --    21 C    0.969
    54   1 H    0.994 --    22 C    0.959
    55   1 H    0.988 --    25 C    0.970
    56   1 H    0.989 --    25 C    0.972
    57   1 H    0.992 --    25 C    0.976
    58   1 H    0.993 --    28 C    0.977
    59   1 H    0.995 --    28 C    0.974
    60   1 H    0.996 --    28 C    0.974
    61   1 H    0.996 --    29 C    0.964
    62   1 H    0.992 --    30 C    0.969
    63   1 H    0.992 --    30 C    0.965
    64   1 H    0.993 --    30 C    0.976
    65   1 H    0.991 --    31 C    0.960
    66   1 H    0.991 --    32 C    0.975
    67   1 H    0.996 --    32 C    0.981
    68   1 H    0.994 --    32 C    0.981
    69   1 H    0.992 --    33 C    0.975
    70   1 H    0.997 --    33 C    0.982
    71   1 H    0.993 --    33 C    0.980
    72   1 H    0.971 --     1 N    0.943
 ---------------------------------------------------------------------------

molecular dipole:
                 x           y           z       tot (Debye)
 q only:        1.230      -0.228      -1.117
   full:        1.472      -0.386      -1.309       5.102

           -------------------------------------------------
          | TOTAL ENERGY             -100.767839603317 Eh   |
          | GRADIENT NORM               0.001551269084 Eh/α |
          | HOMO-LUMO GAP               1.032891274195 eV   |
           -------------------------------------------------

 * finished run on 2024/04/06 at 11:16:56.738
