   * xtb version 6.6.1 (8d0f1dd) compiled by 'conda@1efc2f54142f' on 2023-08-01
          program call               : xtb xtbopt.xyz --opt crude --input .xc2 --gfn2

   ID    Z sym.   atoms
    1    7 N      1, 17
    2    6 C      2-6, 8, 9, 11-16, 18-23, 25, 26, 28-33
    3    8 O      7, 10, 24, 27
    4    1 H      34-72
########################################################################
[WARNING] Please study the warnings concerning your input carefully
-1- readin_getIntValue: could not parse ''
########################################################################

          :  Hamiltonian                  GFN2-xTB          :
 * total energy  :   -99.2375389 Eh     change       -0.1847411E-11 Eh
 * total energy  :   -99.3463430 Eh     change       -0.1088040E+00 Eh
 * total energy  :   -99.3481760 Eh     change       -0.1833004E-02 Eh
 * total energy  :   -99.3489543 Eh     change       -0.7782929E-03 Eh
 * total energy  :   -99.3491281 Eh     change       -0.1738006E-03 Eh
   *** GEOMETRY OPTIMIZATION CONVERGED AFTER 5 ITERATIONS ***

 final structure:
================
72
 xtb: 6.6.1 (8d0f1dd)
N           -0.78817667364121        2.27820903358300        1.99211349355865
C           -1.07627121561880        1.55308633323457        1.01572511207267
C           -2.37577860185987        1.62193321532664        0.26122430070452
C           -3.06373717303919        0.26892861445837        0.31368903870113
C           -4.11124104903975       -0.01695404216865       -0.56381208879566
C           -4.77317772071326       -1.23312467192334       -0.52936915505015
O           -5.78321820703922       -1.59349365691518       -1.34770215152701
C           -6.27046161927340       -0.66840680753449       -2.29077672297241
C           -4.38907100183386       -2.21269149831577        0.42653762734091
O           -5.08635516265154       -3.36512632215675        0.38775276653511
C           -4.83189551730672       -4.35376098285940        1.35837201478084
C           -3.35865191024214       -1.91671429154983        1.30512699992283
C           -2.70547775163048       -0.69223366251484        1.24747936864093
C           -1.99172202005020        1.99004348965451       -1.19756105494640
C           -1.39974878416503        0.84308995379179       -2.03578174561821
C           -0.00980192975989        0.48049257818770       -1.65586762178231
N            0.45580361760848       -0.75799367057032       -1.50993825161317
C            1.75620128981150       -1.07138088670685       -1.42647849715640
C            2.84292113010839       -0.10338864738786       -1.59013750968622
C            3.22797037818380        0.67543065154153       -0.22955200948556
C            4.06218612064023        1.82969321946821       -0.61991196298343
C            5.41725531032297        1.80228769169176       -0.51680723862782
C            6.07938344220962        0.72789984674372        0.10385253303481
O            7.40116198199947        0.57264466371780        0.18360558730064
C            8.25749335843673        1.50592709699941       -0.43812619814611
C            5.29559871785017       -0.28443224449473        0.76585143799105
O            6.03210302718074       -1.16567296723271        1.47546904430374
C            5.37335997857747       -2.19662138329200        2.17245164318889
C            3.93894144374812       -0.26903546379459        0.66495439911393
C           -0.49250855939579       -1.85887406253242       -1.44248094982562
C           -3.37002228996396        2.68175587934142        0.82307512393646
C           -3.78416486300743        2.35960177509894        2.25682872274806
C           -2.83527381807012        4.10948224649675        0.75282336082714
H           -4.42001143403390        0.72932588437912       -1.27680508153071
H           -6.65452546843078        0.23442424938187       -1.80657628494343
H           -7.08543503854508       -1.17594743615515       -2.80292943957779
H           -5.50143751609498       -0.39449390344298       -3.02063036057298
H           -4.99220971861170       -3.97162799965410        2.37077158353714
H           -5.54440134943359       -5.15109915855423        1.15652580694167
H           -3.81415735402475       -4.74791121802623        1.27305513018639
H           -3.05852570159784       -2.63279001151168        2.05270817438997
H           -1.92577393063530       -0.48716374200957        1.96496960381799
H           -2.88387639320591        2.35287535327279       -1.70763855553231
H           -1.27526369284535        2.81204912399469       -1.16857157280669
H           -2.06877282913310       -0.01336577267671       -2.00358297189345
H           -1.37431089487872        1.20319553751960       -3.07312186856590
H           -0.38131540924113        0.81923829735076        0.57018277148521
H            0.71134943613993        1.28040426824692       -1.66928855569728
H            1.99404847277534       -2.08581407772902       -1.16210505025394
H            2.27711389793894        0.99313474635506        0.20319320313026
H            2.58786150194813        0.65627000404683       -2.33028279677994
H            3.74932625689323       -0.61274262410592       -1.91408324082953
H            3.57129606811041        2.67439361264828       -1.07671259777524
H            5.99470587563205        2.63387338751893       -0.88914834956540
H            8.16977192801481        2.49495513522643        0.02015714947732
H            8.05491106439437        1.57960998829407       -1.51055615828269
H            9.26569149194020        1.12626939933469       -0.28458586783060
H            6.16173385959269       -2.79712051935053        2.62176151614290
H            4.72832199868382       -1.79610115872804        2.96055768355269
H            4.78114228736608       -2.82155069917158        1.49654168458378
H            3.33734639094502       -1.00594548826959        1.17025688295919
H           -0.96068389666120       -2.01212629433174       -2.41473961566985
H           -1.26539235108288       -1.65134486744500       -0.70092936892258
H            0.02444994653392       -2.77400325196817       -1.16532294789557
H           -4.26630938547516        2.62190477600609        0.19405975757338
H           -2.92765761555483        2.43926924211753        2.91892345617201
H           -4.19921027835972        1.35738173787534        2.33203542686431
H           -4.54081974182263        3.06749039226248        2.58476079778685
H           -1.91841035002922        4.19499806218840        1.32764722731370
H           -2.64944408197107        4.42503347582748       -0.27017440973739
H           -3.57062334736634        4.78590604538548        1.18080959411751
H            0.13238897080212        2.17268399899899        2.40750307081169

          :  Hamiltonian                  GFN2-xTB          :
         :: total energy             -99.349128068480 Eh    ::
         :: gradient norm              0.004662441943 Eh/a0 ::
         :: HOMO-LUMO gap              0.989719031815 eV    ::
         :: SCC energy              -100.719903550319 Eh    ::
         :: -> dispersion             -0.076914507452 Eh    ::
         :: repulsion energy           1.368941801091 Eh    ::

    * Orbital Energies and Occupations

         #    Occupation            Energy/Eh            Energy/eV
      -------------------------------------------------------------
         1        2.0000           -0.8239378             -22.4205
       ...           ...                  ...                  ...
        78        1.9982           -0.5298003             -14.4166
        79        1.9980           -0.5279260             -14.3656
        80        1.9979           -0.5273076             -14.3488
        81        1.9970           -0.5217249             -14.1969
        82        1.9969           -0.5212398             -14.1837
        83        1.9950           -0.5135944             -13.9756
        84        1.9944           -0.5116929             -13.9239
        85        1.9930           -0.5083254             -13.8322
        86        1.9780           -0.4900382             -13.3346
        87        1.9675           -0.4837446             -13.1634
        88        1.9320           -0.4717658             -12.8374
        89        1.8572           -0.4593989             -12.5009
        90        1.6389           -0.4427278             -12.0472 (HOMO)
        91        0.6267           -0.4063563             -11.0575 (LUMO)
        92        0.0179           -0.3442381              -9.3672
        93        0.0107           -0.3359907              -9.1428
        94        0.0033           -0.3172953              -8.6340
        95        0.0031           -0.3163603              -8.6086
        96        0.0026           -0.3134796              -8.5302
        97        0.0000           -0.2366873              -6.4406
        98        0.0000           -0.1908920              -5.1944
        99                         -0.1105953              -3.0095
       100                         -0.0736351              -2.0037
       101                         -0.0658969              -1.7931
       ...                                ...                  ...
       171                          0.5718085              15.5597
      -------------------------------------------------------------
                  HL-Gap            0.0363715 Eh            0.9897 eV

     #   Z          covCN         q      C6AA      α(0)
     1   7 N        1.774    -0.272    27.881     7.819
     2   6 C        2.828     0.103    25.717     8.310
     3   6 C        3.907     0.007    20.403     6.420
     4   6 C        2.975     0.003    27.961     8.674
     5   6 C        2.920    -0.080    29.995     8.981
     6   6 C        2.862     0.129    25.169     8.223
     7   8 O        1.706    -0.229    17.801     5.696
     8   6 C        3.644     0.027    20.449     6.500
     9   6 C        2.864     0.129    25.178     8.225
    10   8 O        1.706    -0.227    17.771     5.692
    11   6 C        3.645     0.026    20.463     6.501
    12   6 C        2.913    -0.074    29.848     8.959
    13   6 C        2.921    -0.052    29.299     8.877
    14   6 C        3.812    -0.064    21.712     6.632
    15   6 C        3.801    -0.068    21.798     6.647
    16   6 C        2.860    -0.039    28.975     8.823
    17   7 N        2.730     0.077    19.911     6.627
    18   6 C        2.864    -0.049    29.202     8.858
    19   6 C        3.799    -0.062    21.695     6.632
    20   6 C        3.852    -0.012    20.751     6.479
    21   6 C        2.911    -0.041    29.015     8.833
    22   6 C        2.900    -0.062    29.541     8.912
    23   6 C        2.864     0.139    24.963     8.190
    24   8 O        1.706    -0.194    17.239     5.606
    25   6 C        3.646     0.019    20.583     6.520
    26   6 C        2.851     0.134    25.062     8.205
    27   8 O        1.706    -0.234    17.880     5.709
    28   6 C        3.646     0.026    20.462     6.501
    29   6 C        2.906    -0.085    30.136     9.001
    30   6 C        3.719    -0.075    22.066     6.710
    31   6 C        3.853    -0.007    20.669     6.466
    32   6 C        3.756    -0.117    22.799     6.808
    33   6 C        3.755    -0.119    22.842     6.815
    34   1 H        0.926     0.053     2.277     2.360
    35   1 H        0.924     0.054     2.266     2.354
    36   1 H        0.925     0.081     1.965     2.192
    37   1 H        0.924     0.047     2.355     2.400
    38   1 H        0.924     0.056     2.252     2.347
    39   1 H        0.925     0.082     1.963     2.191
    40   1 H        0.924     0.049     2.328     2.386
    41   1 H        0.926     0.053     2.285     2.364
    42   1 H        0.926     0.041     2.441     2.443
    43   1 H        0.925     0.056     2.241     2.341
    44   1 H        0.924     0.051     2.302     2.373
    45   1 H        0.925     0.057     2.230     2.335
    46   1 H        0.923     0.065     2.136     2.286
    47   1 H        0.923     0.005     2.965     2.693
    48   1 H        0.926     0.057     2.229     2.335
    49   1 H        0.926     0.052     2.294     2.368
    50   1 H        0.924     0.056     2.252     2.347
    51   1 H        0.924     0.061     2.189     2.314
    52   1 H        0.925     0.063     2.160     2.299
    53   1 H        0.926     0.053     2.283     2.363
    54   1 H        0.926     0.064     2.150     2.293
    55   1 H        0.924     0.065     2.146     2.291
    56   1 H        0.924     0.062     2.178     2.308
    57   1 H        0.925     0.089     1.889     2.150
    58   1 H        0.925     0.083     1.951     2.184
    59   1 H        0.924     0.051     2.304     2.374
    60   1 H        0.924     0.047     2.355     2.400
    61   1 H        0.926     0.050     2.325     2.384
    62   1 H        0.925     0.082     1.960     2.189
    63   1 H        0.924     0.082     1.958     2.188
    64   1 H        0.925     0.080     1.978     2.200
    65   1 H        0.924     0.037     2.490     2.468
    66   1 H        0.925     0.066     2.133     2.284
    67   1 H        0.925     0.035     2.519     2.482
    68   1 H        0.925     0.051     2.310     2.377
    69   1 H        0.925     0.064     2.155     2.296
    70   1 H        0.925     0.036     2.502     2.474
    71   1 H        0.925     0.054     2.273     2.358
    72   1 H        0.860     0.153     1.382     1.841

Wiberg/Mayer (AO) data.
largest (>0.10) Wiberg bond orders for each atom

     #   Z sym  total        # sym  WBO       # sym  WBO       # sym  WBO
 ---------------------------------------------------------------------------
     1   7 N    3.020 --     2 C    1.952    72 H    0.943
     2   6 C    3.934 --     1 N    1.952     3 C    0.994    47 H    0.914
     3   6 C    3.973 --     2 C    0.994     4 C    0.975    14 C    0.952
                            31 C    0.942
     4   6 C    3.946 --    13 C    1.409     5 C    1.369     3 C    0.975
     5   6 C    3.961 --     6 C    1.399     4 C    1.369    34 H    0.958
     6   6 C    3.902 --     5 C    1.399     9 C    1.221     7 O    1.100
     7   8 O    2.253 --     6 C    1.100     8 C    0.978
     8   6 C    3.932 --     7 O    0.978    36 H    0.977    37 H    0.973
                            35 H    0.973
     9   6 C    3.898 --    12 C    1.390     6 C    1.221    10 O    1.103
    10   8 O    2.251 --     9 C    1.103    11 C    0.977
    11   6 C    3.930 --    10 O    0.977    39 H    0.977    40 H    0.973
                            38 H    0.973
    12   6 C    3.961 --    13 C    1.405     9 C    1.390    41 H    0.964
    13   6 C    3.951 --     4 C    1.409    12 C    1.405    42 H    0.963
    14   6 C    3.975 --    15 C    0.985    44 H    0.972    43 H    0.968
                             3 C    0.952
    15   6 C    3.986 --    16 C    1.049    14 C    0.985    45 H    0.962
                            46 H    0.938
    16   6 C    3.670 --    17 N    1.346    15 C    1.049    48 H    0.956
                            18 C    0.192
    17   7 N    3.716 --    16 C    1.346    18 C    1.306    30 C    0.985
    18   6 C    3.669 --    17 N    1.306    19 C    1.095    49 H    0.963
                            16 C    0.192
    19   6 C    3.930 --    18 C    1.095    52 H    0.969    51 H    0.957
                            20 C    0.830
    20   6 C    3.965 --    21 C    1.060    29 C    1.053    50 H    0.945
                            19 C    0.830
    21   6 C    3.750 --    22 C    1.606    20 C    1.060    53 H    0.969
    22   6 C    3.972 --    21 C    1.606    23 C    1.272    54 H    0.959
    23   6 C    3.692 --    22 C    1.272    24 O    1.158    26 C    1.139
    24   8 O    2.268 --    23 C    1.158    25 C    0.969
    25   6 C    3.922 --    57 H    0.976    56 H    0.972    55 H    0.970
                            24 O    0.969
    26   6 C    3.929 --    29 C    1.565    23 C    1.139    27 O    1.093
    27   8 O    2.258 --    26 C    1.093    28 C    0.978    29 C    0.105
    28   6 C    3.933 --    27 O    0.978    58 H    0.977    60 H    0.974
                            59 H    0.974
    29   6 C    3.806 --    26 C    1.565    20 C    1.053    61 H    0.964
                            27 O    0.105
    30   6 C    3.954 --    17 N    0.985    64 H    0.976    62 H    0.969
                            63 H    0.965
    31   6 C    3.971 --    32 C    1.008    33 C    1.008    65 H    0.960
                             3 C    0.942
    32   6 C    3.979 --    31 C    1.008    67 H    0.981    68 H    0.981
                            66 H    0.975
    33   6 C    3.979 --    31 C    1.008    70 H    0.983    71 H    0.980
                            69 H    0.975
    34   1 H    0.996 --     5 C    0.958
    35   1 H    0.993 --     8 C    0.973
    36   1 H    0.993 --     8 C    0.977
    37   1 H    0.994 --     8 C    0.973
    38   1 H    0.992 --    11 C    0.973
    39   1 H    0.993 --    11 C    0.977
    40   1 H    0.993 --    11 C    0.973
    41   1 H    0.995 --    12 C    0.964
    42   1 H    0.998 --    13 C    0.963
    43   1 H    0.995 --    14 C    0.968
    44   1 H    0.996 --    14 C    0.972
    45   1 H    0.996 --    15 C    0.962
    46   1 H    0.975 --    15 C    0.938
    47   1 H    0.982 --     2 C    0.914
    48   1 H    0.996 --    16 C    0.956
    49   1 H    0.996 --    18 C    0.963
    50   1 H    0.980 --    20 C    0.945
    51   1 H    0.990 --    19 C    0.957
    52   1 H    0.992 --    19 C    0.969
    53   1 H    0.997 --    21 C    0.969
    54   1 H    0.994 --    22 C    0.959
    55   1 H    0.988 --    25 C    0.970
    56   1 H    0.989 --    25 C    0.972
    57   1 H    0.992 --    25 C    0.976
    58   1 H    0.993 --    28 C    0.977
    59   1 H    0.995 --    28 C    0.974
    60   1 H    0.996 --    28 C    0.974
    61   1 H    0.996 --    29 C    0.964
    62   1 H    0.992 --    30 C    0.969
    63   1 H    0.992 --    30 C    0.965
    64   1 H    0.993 --    30 C    0.976
    65   1 H    0.991 --    31 C    0.960
    66   1 H    0.991 --    32 C    0.975
    67   1 H    0.996 --    32 C    0.981
    68   1 H    0.994 --    32 C    0.981
    69   1 H    0.992 --    33 C    0.975
    70   1 H    0.996 --    33 C    0.983
    71   1 H    0.993 --    33 C    0.980
    72   1 H    0.970 --     1 N    0.943
 ---------------------------------------------------------------------------

molecular dipole:
                 x           y           z       tot (Debye)
 q only:        1.280      -0.259      -1.144
   full:        1.500      -0.413      -1.332       5.205

           -------------------------------------------------
          | TOTAL ENERGY              -99.349128068480 Eh   |
          | GRADIENT NORM               0.004662441943 Eh/α |
          | HOMO-LUMO GAP               0.989719031815 eV   |
           -------------------------------------------------

 * finished run on 2024/04/06 at 11:16:57.868
