   * xtb version 6.6.1 (8d0f1dd) compiled by 'conda@1efc2f54142f' on 2023-08-01
          program call               : xtb struc.xyz --opt loose --input .xc1 --gfn2

   ID    Z sym.   atoms
    1    6 C      1, 3, 5-7, 10, 11, 14
    2    7 N      2, 4, 9, 13
    3    8 O      8, 12
    4    1 H      15-25
constraining bond 22 23 to    3.2800000 Å, actual value:    1.7896004 Å

          :  Hamiltonian                  GFN2-xTB          :
 * total energy  :   -38.2816722 Eh     change       -0.6650680E-10 Eh
 * total energy  :   -40.3448011 Eh     change       -0.2063129E+01 Eh
 * total energy  :   -41.6584796 Eh     change       -0.1313678E+01 Eh
 * total energy  :   -42.0414580 Eh     change       -0.3829784E+00 Eh
 * total energy  :   -42.0679922 Eh     change       -0.2653412E-01 Eh
 * total energy  :   -42.0684523 Eh     change       -0.4601830E-03 Eh
 * total energy  :   -42.0695648 Eh     change       -0.1112454E-02 Eh
 * total energy  :   -42.0699422 Eh     change       -0.3773768E-03 Eh
 * total energy  :   -42.0702380 Eh     change       -0.2958789E-03 Eh
 * total energy  :   -42.0705694 Eh     change       -0.3313959E-03 Eh
 * total energy  :   -42.0716385 Eh     change       -0.1893855E-03 Eh
 * total energy  :   -42.0717060 Eh     change       -0.6745396E-04 Eh
 * total energy  :   -42.0717483 Eh     change       -0.4235390E-04 Eh
 * total energy  :   -42.0717829 Eh     change       -0.3453166E-04 Eh
 * total energy  :   -42.0718029 Eh     change       -0.2002476E-04 Eh
 * total energy  :   -42.0718170 Eh     change       -0.1407974E-04 Eh
 * total energy  :   -42.0718315 Eh     change       -0.1450423E-04 Eh
 * total energy  :   -42.0718458 Eh     change       -0.1431514E-04 Eh
 * total energy  :   -42.0718563 Eh     change       -0.1050468E-04 Eh
   *** GEOMETRY OPTIMIZATION CONVERGED AFTER 21 ITERATIONS ***

 final structure:
================
25
 xtb: 6.6.1 (8d0f1dd)
C            3.21911909298002        1.13520637423393        0.01857820344442
N            2.27333289399690        0.04957405445279       -0.00017012919398
C            2.54548451377273       -1.24804230521427       -0.00844918990894
N            1.39593648973051       -1.95790987885363       -0.00849154324921
C            0.35647338930127       -1.07449562045209        0.00029422993384
C            0.90800193955538        0.19471115751372        0.00593319054961
C            0.07517560684609        1.38678300042849       -0.00299645565737
O            0.47947830838759        2.52425066028391       -0.01676178096282
N           -1.27628017010597        1.05155488650869        0.00144023543815
C           -2.23193230686411        2.15496212509038       -0.00222229501560
C           -1.84977885728442       -0.20855130466872        0.00469214679491
O           -3.03398450988496       -0.37929137672240        0.00855533047729
N           -0.96412190916413       -1.32583378457550        0.00200558189976
C           -1.47151580703396       -2.65152066785680        0.00180682493404
H            3.71589584717399        1.18587857645831        0.98834029257861
H            3.97138596951180        0.99428139099209       -0.75601225774385
H            2.68446281800139        2.06982426643261       -0.15033463961223
H            3.53076492595168       -1.67245967506203       -0.01534911660097
H           -1.66986837688162        3.08610928784702        0.00514678273124
H           -2.85836598831718        2.09805101902701       -0.89166492024241
H           -2.87191319816745        2.09098872509157        0.87694627155518
H           -1.25092220476026       -3.04563253558815        1.61154550998351
H           -1.27073621420898       -3.03426349476596       -1.63013186983541
H           -2.55570199756222       -2.64053093897053        0.00486700640106
H            1.31004125912591       -2.96540540003043       -0.01639579079884

          :  Hamiltonian                  GFN2-xTB          :
         :: total energy             -42.071856288018 Eh    ::
         :: gradient norm              0.003578320883 Eh/a0 ::
         :: HOMO-LUMO gap              2.908202487437 eV    ::
         :: SCC energy               -42.571521840375 Eh    ::
         :: -> dispersion             -0.023829415754 Eh    ::
         :: repulsion energy           0.496889460121 Eh    ::

    * Orbital Energies and Occupations

         #    Occupation            Energy/Eh            Energy/eV
      -------------------------------------------------------------
         1        2.0000           -0.9202587             -25.0415
       ...           ...                  ...                  ...
        25        2.0000           -0.6643957             -18.0791
        26        2.0000           -0.6635255             -18.0554
        27        1.9999           -0.6522019             -17.7473
        28        1.9997           -0.6374438             -17.3457
        29        1.9996           -0.6293392             -17.1252
        30        1.9994           -0.6226336             -16.9427
        31        1.9976           -0.6014297             -16.3657
        32        1.9975           -0.6008099             -16.3489
        33        1.9922           -0.5831127             -15.8673
        34        1.9786           -0.5669334             -15.4270
        35        1.9780           -0.5664895             -15.4150
        36        1.9734           -0.5634106             -15.3312
        37        1.9407           -0.5504793             -14.9793 (HOMO)
        38        0.0738           -0.4436048             -12.0711 (LUMO)
        39        0.0585           -0.4398032             -11.9677
        40        0.0098           -0.4111086             -11.1868
        41        0.0014           -0.3800423             -10.3415
        42        0.0000           -0.3248011              -8.8383
        43        0.0000           -0.2798545              -7.6152
        44                         -0.2041889              -5.5563
        45                         -0.2006228              -5.4592
        46                         -0.1383702              -3.7652
        47                         -0.1316674              -3.5829
        48                         -0.0725473              -1.9741
       ...                                ...                  ...
        67                          0.5545401              15.0898
      -------------------------------------------------------------
                  HL-Gap            0.1068745 Eh            2.9082 eV

     #   Z          covCN         q      C6AA      α(0)
     1   6 C        3.691    -0.097    22.540     6.794
     2   7 N        2.836     0.089    19.692     6.591
     3   6 C        3.062     0.055    26.717     8.476
     4   7 N        2.799    -0.053    22.258     7.007
     5   6 C        3.051     0.116    25.391     8.264
     6   6 C        3.127    -0.023    28.374     8.722
     7   6 C        2.764     0.275    22.359     7.744
     8   8 O        0.858    -0.359    20.884     6.127
     9   7 N        2.745    -0.083    22.848     7.099
    10   6 C        3.710    -0.063    21.851     6.681
    11   6 C        2.726     0.316    21.636     7.615
    12   8 O        0.859    -0.346    20.627     6.089
    13   7 N        2.737    -0.053    22.274     7.009
    14   6 C        1.909    -0.041    32.194     9.163
    15   1 H        0.924     0.112     1.677     2.025
    16   1 H        0.925     0.108     1.711     2.045
    17   1 H        0.925     0.139     1.466     1.894
    18   1 H        0.926     0.131     1.531     1.935
    19   1 H        0.925     0.115     1.651     2.009
    20   1 H        0.925     0.101     1.779     2.086
    21   1 H        0.925     0.101     1.776     2.084
    22   1 H        0.032     0.053     5.671     4.354
    23   1 H        0.024     0.052     5.718     4.372
    24   1 H        0.925     0.114     1.660     2.015
    25   1 H        0.860     0.239     0.927     1.509

Wiberg/Mayer (AO) data.
largest (>0.10) Wiberg bond orders for each atom

     #   Z sym  total        # sym  WBO       # sym  WBO       # sym  WBO
 ---------------------------------------------------------------------------
     1   6 C    3.911 --     2 N    0.983    16 H    0.963    17 H    0.959
                            15 H    0.954
     2   7 N    3.701 --     3 C    1.404     6 C    1.169     1 C    0.983
     3   6 C    3.878 --     2 N    1.404     4 N    1.285    18 H    0.951
     4   7 N    3.603 --     3 C    1.285     5 C    1.193    25 H    0.914
     5   6 C    3.952 --     6 C    1.358    13 N    1.206     4 N    1.193
     6   6 C    3.911 --     5 C    1.358     2 N    1.169     7 C    1.057
     7   6 C    3.952 --     8 O    1.693     9 N    1.109     6 C    1.057
     8   8 O    2.037 --     7 C    1.693     9 N    0.150
     9   7 N    3.555 --    11 C    1.124     7 C    1.109    10 C    0.966
                             8 O    0.150    12 O    0.136
    10   6 C    3.906 --    19 H    0.967     9 N    0.966    21 H    0.963
                            20 H    0.963
    11   6 C    3.955 --    12 O    1.725     9 N    1.124    13 N    1.002
    12   8 O    2.069 --    11 C    1.725     9 N    0.136    13 N    0.115
    13   7 N    3.557 --     5 C    1.206    14 C    1.033    11 C    1.002
                            12 O    0.115
    14   6 C    3.723 --    13 N    1.033    24 H    0.964    22 H    0.843
                            23 H    0.837
    15   1 H    0.985 --     1 C    0.954
    16   1 H    0.986 --     1 C    0.963
    17   1 H    0.980 --     1 C    0.959
    18   1 H    0.982 --     3 C    0.951
    19   1 H    0.984 --    10 C    0.967
    20   1 H    0.983 --    10 C    0.963
    21   1 H    0.983 --    10 C    0.963
    22   1 H    0.926 --    14 C    0.843
    23   1 H    0.921 --    14 C    0.837
    24   1 H    0.982 --    14 C    0.964
    25   1 H    0.942 --     4 N    0.914
 ---------------------------------------------------------------------------

molecular dipole:
                 x           y           z       tot (Debye)
 q only:        2.739      -1.787       0.010
   full:        2.910      -2.191       0.016       9.259

           -------------------------------------------------
          | TOTAL ENERGY              -42.071856288018 Eh   |
          | GRADIENT NORM               0.003578320883 Eh/α |
          | HOMO-LUMO GAP               2.908202487437 eV   |
           -------------------------------------------------

 * finished run on 2024/06/05 at 20:00:21.550
