   * xtb version 6.6.1 (8d0f1dd) compiled by 'conda@1efc2f54142f' on 2023-08-01
          program call               : xtb struc.xyz --opt loose --input .xc1 --gfn2

   ID    Z sym.   atoms
    1    6 C      1, 3, 5-7, 10, 11, 14
    2    7 N      2, 4, 9, 13
    3    8 O      8, 12
    4    1 H      15-25
constraining bond 2 6 to    3.9200000 Å, actual value:    1.3708515 Å

          :  Hamiltonian                  GFN2-xTB          :
 * total energy  :   -30.6573810 Eh     change       -0.2401990E-09 Eh
 * total energy  :   -34.8184128 Eh     change       -0.4161032E+01 Eh
 * total energy  :   -38.3200557 Eh     change       -0.3501643E+01 Eh
 * total energy  :   -40.5310231 Eh     change       -0.2210967E+01 Eh
 * total energy  :   -41.5133133 Eh     change       -0.9822902E+00 Eh
 * total energy  :   -41.6869884 Eh     change       -0.1736751E+00 Eh
 * total energy  :   -41.7243599 Eh     change       -0.3737143E-01 Eh
 * total energy  :   -41.8006892 Eh     change       -0.7632929E-01 Eh
 * total energy  :   -41.8552763 Eh     change       -0.5458712E-01 Eh
 * total energy  :   -41.9092233 Eh     change       -0.5394702E-01 Eh
 * total energy  :   -42.1535345 Eh     change       -0.2162978E-01 Eh
 * total energy  :   -42.1644747 Eh     change       -0.1094019E-01 Eh
 * total energy  :   -42.1681813 Eh     change       -0.3706621E-02 Eh
 * total energy  :   -42.1699602 Eh     change       -0.1778900E-02 Eh
 * total energy  :   -42.1710890 Eh     change       -0.1128804E-02 Eh
 * total energy  :   -42.1715559 Eh     change       -0.4669063E-03 Eh
 * total energy  :   -42.1717226 Eh     change       -0.1667019E-03 Eh
 * total energy  :   -42.1717758 Eh     change       -0.5319469E-04 Eh
 * total energy  :   -42.1718173 Eh     change       -0.4151066E-04 Eh
   *** GEOMETRY OPTIMIZATION CONVERGED AFTER 30 ITERATIONS ***

 final structure:
================
25
 xtb: 6.6.1 (8d0f1dd)
C            3.42508210601667        0.90474954398876        0.03654905065726
N            3.55201495661001       -0.48757112183705        0.01505451646451
C            2.67376429275947       -1.38478086983582       -0.00190353450868
N            1.27103899903696       -1.40981801527559       -0.01757161710873
C            0.15809166051560       -0.61862379702839       -0.01139034963556
C           -0.15187499893592        0.77685128421486       -0.01578566218640
C            0.63349264582776        1.88957153977933       -0.03088578914987
O            0.79603351050259        3.05291621307483       -0.03990276853497
N           -1.55119937943084        0.88468192775308       -0.00482783954154
C           -2.34350438592229        2.08369949756143       -0.00180940191822
C           -2.11388002333844       -0.36410463242632        0.00176858662630
O           -3.28027806430859       -0.64894468138071        0.01112522507042
N           -1.04698177582895       -1.26985283562816       -0.00355390733890
C           -1.28607273249133       -2.68868327948602        0.00019926042602
H            3.85713423987473        1.28900033112145        0.96484026001111
H            3.99774253046040        1.32656523264389       -0.79361223165374
H            2.36296917656351        1.25090923829205       -0.03958745798528
H            3.05518379291237       -2.39948434494832       -0.01048990511598
H           -1.70573838916480        2.96370907781777        0.00611312093887
H           -2.98287700070583        2.10321316912446       -0.88710558214242
H           -2.98998909759032        2.09212060839566        0.87836050403638
H           -0.87618974132854       -3.16191499329864        0.89544839332327
H           -0.89062919906984       -3.16383968247556       -0.90054794117688
H           -2.36861284365721       -2.82295425161157        0.00862130963214
H            0.96571123479266       -2.37917661693551       -0.02793462128897

          :  Hamiltonian                  GFN2-xTB          :
         :: total energy             -42.171817327545 Eh    ::
         :: gradient norm              0.003128351482 Eh/a0 ::
         :: HOMO-LUMO gap              2.252081736759 eV    ::
         :: SCC energy               -42.707082203606 Eh    ::
         :: -> dispersion             -0.021664161616 Eh    ::
         :: repulsion energy           0.535081939948 Eh    ::

    * Orbital Energies and Occupations

         #    Occupation            Energy/Eh            Energy/eV
      -------------------------------------------------------------
         1        2.0000           -0.9144028             -24.8822
       ...           ...                  ...                  ...
        25        1.9991           -0.6820263             -18.5589
        26        1.9986           -0.6715961             -18.2751
        27        1.9980           -0.6623779             -18.0242
        28        1.9975           -0.6566916             -17.8695
        29        1.9946           -0.6388226             -17.3832
        30        1.9934           -0.6338263             -17.2473
        31        1.9920           -0.6292383             -17.1224
        32        1.9914           -0.6275534             -17.0766
        33        1.9738           -0.6009602             -16.3530
        34        1.9516           -0.5861163             -15.9490
        35        1.9351           -0.5789653             -15.7544
        36        1.8142           -0.5524465             -15.0328
        37        1.7212           -0.5415673             -14.7368 (HOMO)
        38        0.3184           -0.4588048             -12.4847 (LUMO)
        39        0.3029           -0.4574053             -12.4466
        40        0.0171           -0.3854785             -10.4894
        41        0.0036           -0.3482246              -9.4757
        42        0.0009           -0.3153769              -8.5818
        43        0.0000           -0.2126148              -5.7855
        44        0.0000           -0.1930858              -5.2541
        45        0.0000           -0.1212312              -3.2989
        46        0.0000           -0.1147581              -3.1227
        47                         -0.0746680              -2.0318
        48                         -0.0527679              -1.4359
       ...                                ...                  ...
        67                          0.7478213              20.3493
      -------------------------------------------------------------
                  HL-Gap            0.0827625 Eh            2.2521 eV

     #   Z          covCN         q      C6AA      α(0)
     1   6 C        3.692    -0.041    21.489     6.633
     2   7 N        1.820    -0.122    24.422     7.322
     3   6 C        2.760     0.103    25.697     8.301
     4   7 N        2.688    -0.118    23.583     7.212
     5   6 C        2.900     0.114    25.485     8.277
     6   6 C        3.000     0.008    27.832     8.654
     7   6 C        1.844     0.212    26.148     8.260
     8   8 O        0.856    -0.161    17.445     5.600
     9   7 N        2.802    -0.038    21.973     6.962
    10   6 C        3.690    -0.065    21.934     6.702
    11   6 C        2.826     0.312    21.704     7.634
    12   8 O        0.857    -0.346    20.623     6.089
    13   7 N        2.825    -0.055    22.307     7.015
    14   6 C        3.690    -0.073    22.101     6.728
    15   1 H        0.924     0.115     1.657     2.013
    16   1 H        0.924     0.117     1.639     2.002
    17   1 H        0.921     0.067     2.125     2.280
    18   1 H        0.925     0.105     1.737     2.061
    19   1 H        0.925     0.099     1.793     2.094
    20   1 H        0.924     0.112     1.677     2.025
    21   1 H        0.924     0.113     1.674     2.023
    22   1 H        0.924     0.090     1.877     2.142
    23   1 H        0.924     0.090     1.878     2.143
    24   1 H        0.924     0.131     1.528     1.933
    25   1 H        0.860     0.231     0.962     1.536

Wiberg/Mayer (AO) data.
largest (>0.10) Wiberg bond orders for each atom

     #   Z sym  total        # sym  WBO       # sym  WBO       # sym  WBO
 ---------------------------------------------------------------------------
     1   6 C    3.888 --     2 N    1.080    16 H    0.932    15 H    0.930
                            17 H    0.849
     2   7 N    3.022 --     3 C    1.757     1 C    1.080
     3   6 C    3.887 --     2 N    1.757     4 N    1.091    18 H    0.933
     4   7 N    3.442 --     5 C    1.203     3 C    1.091    25 H    0.902
     5   6 C    3.782 --     6 C    1.208     4 N    1.203    13 N    1.201
     6   6 C    3.828 --     7 C    1.324     5 C    1.208     9 N    1.058
     7   6 C    3.504 --     8 O    1.962     6 C    1.324
     8   8 O    2.187 --     7 C    1.962
     9   7 N    3.422 --    11 C    1.131     6 C    1.058    10 C    0.994
                            12 O    0.128
    10   6 C    3.898 --     9 N    0.994    19 H    0.969    21 H    0.949
                            20 H    0.948
    11   6 C    3.932 --    12 O    1.660     9 N    1.131    13 N    1.051
    12   8 O    1.949 --    11 C    1.660     9 N    0.128    13 N    0.109
    13   7 N    3.511 --     5 C    1.201    11 C    1.051    14 C    0.991
                            12 O    0.109
    14   6 C    3.918 --    13 N    0.991    22 H    0.959    23 H    0.958
                            24 H    0.956
    15   1 H    0.966 --     1 C    0.930
    16   1 H    0.965 --     1 C    0.932
    17   1 H    0.963 --     1 C    0.849
    18   1 H    0.976 --     3 C    0.933
    19   1 H    0.984 --    10 C    0.969
    20   1 H    0.965 --    10 C    0.948
    21   1 H    0.966 --    10 C    0.949
    22   1 H    0.981 --    14 C    0.959
    23   1 H    0.981 --    14 C    0.958
    24   1 H    0.979 --    14 C    0.956
    25   1 H    0.945 --     4 N    0.902
 ---------------------------------------------------------------------------

molecular dipole:
                 x           y           z       tot (Debye)
 q only:        1.346      -0.923       0.005
   full:        1.240      -1.016       0.002       4.073

           -------------------------------------------------
          | TOTAL ENERGY              -42.171817327545 Eh   |
          | GRADIENT NORM               0.003128351482 Eh/α |
          | HOMO-LUMO GAP               2.252081736759 eV   |
           -------------------------------------------------

 * finished run on 2024/06/05 at 19:58:41.870
