   * xtb version 6.6.1 (8d0f1dd) compiled by 'conda@1efc2f54142f' on 2023-08-01
          program call               : xtb xtbopt.xyz --opt crude --input .xc2 --gfn2

   ID    Z sym.   atoms
    1    6 C      1, 3, 5-7, 10, 11, 14
    2    7 N      2, 4, 9, 13
    3    8 O      8, 12
    4    1 H      15-25
########################################################################
[WARNING] Please study the warnings concerning your input carefully
-1- readin_getIntValue: could not parse ''
########################################################################

          :  Hamiltonian                  GFN2-xTB          :
 * total energy  :   -42.1718840 Eh     change       -0.4476419E-12 Eh
 * total energy  :   -42.1728989 Eh     change       -0.1014844E-02 Eh
 * total energy  :   -42.1739384 Eh     change       -0.1039561E-02 Eh
 * total energy  :   -42.1742756 Eh     change       -0.3371233E-03 Eh
 * total energy  :   -42.1746440 Eh     change       -0.3683979E-03 Eh
 * total energy  :   -42.1747879 Eh     change       -0.1439594E-03 Eh
 * total energy  :   -42.1751909 Eh     change       -0.4030265E-03 Eh
 * total energy  :   -42.1753991 Eh     change       -0.2081250E-03 Eh
   *** GEOMETRY OPTIMIZATION CONVERGED AFTER 8 ITERATIONS ***

 final structure:
================
25
 xtb: 6.6.1 (8d0f1dd)
C            3.28342200639995        0.98782863907563        0.04878610658767
N            3.41541296038436       -0.37604201688599        0.01852696374137
C            2.65723313502486       -1.37291064798055       -0.01023009914565
N            1.27779321107891       -1.51858573250064       -0.02206601780126
C            0.18034703348336       -0.70671250173362       -0.00929565974823
C           -0.05312653092973        0.69159714108602       -0.01263261972732
C            0.75407128139822        1.80800859238758       -0.02065659099015
O            0.71866243369746        2.99207892085850       -0.05905696927578
N           -1.44965432534393        0.86306995887453       -0.00591810830777
C           -2.19357745319237        2.09257868134640       -0.00615842396367
C           -2.07018244151931       -0.35679276166952        0.00190718327116
O           -3.24846531288023       -0.58861659288825        0.01113482958699
N           -1.04539815571834       -1.31037763030105       -0.00173982216186
C           -1.34441745828340       -2.71801505529955        0.00344126398653
H            3.72565469605691        1.39482470095639        0.96181506283531
H            3.77614365223682        1.43791542933974       -0.81661571672899
H            2.16945626223018        1.33772507403779        0.02329380127264
H            3.15228289025547       -2.33631677474070       -0.02925348815892
H           -1.52396076508763        2.94880333110770        0.01092161032704
H           -2.82194413522776        2.14077654399396       -0.89824739729705
H           -2.84695898356792        2.12273311394962        0.86832815700568
H           -0.95014457945506       -3.20699290394468        0.89674411938446
H           -0.97054880191856       -3.20970569913709       -0.89719004818366
H           -2.43241272374120       -2.80352850585433        0.01536322852630
H            1.00074361871884       -2.49510476247795       -0.04002974713482

          :  Hamiltonian                  GFN2-xTB          :
         :: total energy             -42.175399068606 Eh    ::
         :: gradient norm              0.005528133300 Eh/a0 ::
         :: HOMO-LUMO gap              2.251541157106 eV    ::
         :: SCC energy               -42.708764190178 Eh    ::
         :: -> dispersion             -0.021963572910 Eh    ::
         :: repulsion energy           0.533235428832 Eh    ::

    * Orbital Energies and Occupations

         #    Occupation            Energy/Eh            Energy/eV
      -------------------------------------------------------------
         1        2.0000           -0.9026377             -24.5620
       ...           ...                  ...                  ...
        25        1.9991           -0.6789508             -18.4752
        26        1.9990           -0.6751923             -18.3729
        27        1.9979           -0.6581492             -17.9092
        28        1.9975           -0.6545529             -17.8113
        29        1.9960           -0.6435496             -17.5119
        30        1.9944           -0.6350743             -17.2813
        31        1.9933           -0.6308830             -17.1672
        32        1.9905           -0.6226762             -16.9439
        33        1.9738           -0.5983543             -16.2820
        34        1.9507           -0.5830571             -15.8658
        35        1.9457           -0.5807141             -15.8020
        36        1.8517           -0.5556633             -15.1204
        37        1.7129           -0.5381326             -14.6433 (HOMO)
        38        0.3096           -0.4553900             -12.3918 (LUMO)
        39        0.2662           -0.4512052             -12.2779
        40        0.0203           -0.3869109             -10.5284
        41        0.0036           -0.3455099              -9.4018
        42        0.0010           -0.3149340              -8.5698
        43        0.0000           -0.1968094              -5.3555
        44        0.0000           -0.1924873              -5.2378
        45        0.0000           -0.1171639              -3.1882
        46        0.0000           -0.1011487              -2.7524
        47                         -0.0787011              -2.1416
        48                         -0.0497703              -1.3543
       ...                                ...                  ...
        67                          0.6366985              17.3254
      -------------------------------------------------------------
                  HL-Gap            0.0827426 Eh            2.2515 eV

     #   Z          covCN         q      C6AA      α(0)
     1   6 C        3.672    -0.036    21.467     6.640
     2   7 N        1.822    -0.118    24.341     7.310
     3   6 C        2.756     0.103    25.696     8.301
     4   7 N        2.688    -0.112    23.452     7.192
     5   6 C        2.912     0.111    25.552     8.289
     6   6 C        2.997     0.003    27.937     8.670
     7   6 C        2.135     0.200    26.093     8.256
     8   8 O        0.856    -0.208    18.197     5.719
     9   7 N        2.810    -0.039    21.992     6.965
    10   6 C        3.691    -0.066    21.959     6.706
    11   6 C        2.830     0.311    21.723     7.638
    12   8 O        0.857    -0.347    20.653     6.093
    13   7 N        2.825    -0.055    22.299     7.013
    14   6 C        3.690    -0.072    22.079     6.725
    15   1 H        0.924     0.122     1.599     1.978
    16   1 H        0.924     0.122     1.595     1.975
    17   1 H        1.196     0.105     1.732     2.055
    18   1 H        0.925     0.109     1.702     2.040
    19   1 H        0.925     0.108     1.711     2.046
    20   1 H        0.924     0.111     1.686     2.030
    21   1 H        0.924     0.112     1.683     2.029
    22   1 H        0.924     0.089     1.886     2.148
    23   1 H        0.924     0.089     1.888     2.149
    24   1 H        0.924     0.129     1.540     1.940
    25   1 H        0.860     0.229     0.972     1.544

Wiberg/Mayer (AO) data.
largest (>0.10) Wiberg bond orders for each atom

     #   Z sym  total        # sym  WBO       # sym  WBO       # sym  WBO
 ---------------------------------------------------------------------------
     1   6 C    3.846 --     2 N    1.144    16 H    0.929    15 H    0.929
                            17 H    0.676
     2   7 N    3.113 --     3 C    1.728     1 C    1.144     4 N    0.100
     3   6 C    3.887 --     2 N    1.728     4 N    1.118    18 H    0.931
     4   7 N    3.457 --     5 C    1.187     3 C    1.118    25 H    0.907
                             2 N    0.100
     5   6 C    3.788 --     6 C    1.235    13 N    1.202     4 N    1.187
     6   6 C    3.820 --     7 C    1.275     5 C    1.235     9 N    1.064
     7   6 C    3.585 --     8 O    1.872     6 C    1.275    17 H    0.262
     8   8 O    2.156 --     7 C    1.872
     9   7 N    3.433 --    11 C    1.133     6 C    1.064    10 C    0.996
                            12 O    0.127
    10   6 C    3.892 --     9 N    0.996    19 H    0.961    21 H    0.948
                            20 H    0.947
    11   6 C    3.931 --    12 O    1.658     9 N    1.133    13 N    1.050
    12   8 O    1.944 --    11 C    1.658     9 N    0.127    13 N    0.109
    13   7 N    3.510 --     5 C    1.202    11 C    1.050    14 C    0.990
                            12 O    0.109
    14   6 C    3.918 --    13 N    0.990    22 H    0.960    23 H    0.960
                            24 H    0.958
    15   1 H    0.968 --     1 C    0.929
    16   1 H    0.967 --     1 C    0.929
    17   1 H    0.964 --     1 C    0.676     7 C    0.262
    18   1 H    0.975 --     3 C    0.931
    19   1 H    0.981 --    10 C    0.961
    20   1 H    0.964 --    10 C    0.947
    21   1 H    0.965 --    10 C    0.948
    22   1 H    0.981 --    14 C    0.960
    23   1 H    0.981 --    14 C    0.960
    24   1 H    0.979 --    14 C    0.958
    25   1 H    0.946 --     4 N    0.907
 ---------------------------------------------------------------------------

molecular dipole:
                 x           y           z       tot (Debye)
 q only:        1.703      -1.116       0.018
   full:        1.662      -1.280       0.017       5.332

           -------------------------------------------------
          | TOTAL ENERGY              -42.175399068606 Eh   |
          | GRADIENT NORM               0.005528133300 Eh/α |
          | HOMO-LUMO GAP               2.251541157106 eV   |
           -------------------------------------------------

 * finished run on 2024/06/05 at 19:58:42.205
