   * xtb version 6.6.1 (8d0f1dd) compiled by 'conda@1efc2f54142f' on 2023-08-01
          program call               : xtb xtbopt.xyz --opt crude --input .xc2 --gfn2

   ID    Z sym.   atoms
    1    6 C      1, 3, 5-7, 10, 11, 14
    2    7 N      2, 4, 9, 13
    3    8 O      8, 12
    4    1 H      15-25

          :  Hamiltonian                  GFN2-xTB          :
 * total energy  :   -42.0883974 Eh     change       -0.4476419E-12 Eh
   *** GEOMETRY OPTIMIZATION CONVERGED AFTER 1 ITERATIONS ***

 final structure:
================
25
 xtb: 6.6.1 (8d0f1dd)
C            3.15983859779545        1.25585247594885        0.01552803114485
N            2.22171912631114        0.16785081266807       -0.00708274641853
C            2.53176800960409       -1.13091397715622       -0.02268952424021
N            1.37571507341059       -1.83391386735268       -0.01930900487918
C            0.31771754923054       -0.97463699025632       -0.00159421298596
C            0.85448888719336        0.30759680041295        0.00742553555717
C            0.00768056398636        1.48005170553869        0.00331970853222
O            0.38235379506682        2.62908738286860       -0.00730766489993
N           -1.34460327508616        1.13203907111661        0.00697739005114
C           -2.31519028854033        2.21545487638653        0.00390138899495
C           -1.89537032431388       -0.13895345213504        0.00782061536452
O           -3.08274372007747       -0.31840601231750        0.01024048082240
N           -1.00236544827358       -1.22622668598780        0.00359940782581
C           -1.53334711015209       -2.57264654794237        0.00076787453614
H            3.60372643680094        1.34952034173361        1.00894876456648
H            3.95807659007787        1.06949560160416       -0.70112757552063
H            2.64252372193746        2.18376870632690       -0.22682504296127
H            4.66101697590870       -3.65961328770943       -0.03123624210413
H           -1.77437779247442        3.15956923615674        0.01156798354232
H           -2.94505679023364        2.14713276199705       -0.88406833469930
H           -2.95853840704875        2.13925046607543        0.88137016033320
H           -1.20652650894924       -3.11211637445679        0.89088993673579
H           -1.21192672136765       -3.10697874042362       -0.89438753154315
H           -2.62053550369118       -2.50213781170555        0.00426608785594
H            1.33438807698493       -2.84188794979088       -0.02982386771070

          :  Hamiltonian                  GFN2-xTB          :
         :: total energy             -42.088397385141 Eh    ::
         :: gradient norm              0.001470627135 Eh/a0 ::
         :: HOMO-LUMO gap              0.795535995303 eV    ::
         :: SCC energy               -42.594224707201 Eh    ::
         :: -> dispersion             -0.022446279112 Eh    ::
         :: repulsion energy           0.505729852062 Eh    ::

    * Orbital Energies and Occupations

         #    Occupation            Energy/Eh            Energy/eV
      -------------------------------------------------------------
         1        2.0000           -0.8975134             -24.4226
       ...           ...                  ...                  ...
        25        1.9997           -0.6669451             -18.1485
        26        1.9997           -0.6662177             -18.1287
        27        1.9987           -0.6428352             -17.4924
        28        1.9979           -0.6348261             -17.2745
        29        1.9959           -0.6245142             -16.9939
        30        1.9937           -0.6175580             -16.8046
        31        1.9912           -0.6123238             -16.6622
        32        1.9864           -0.6053544             -16.4725
        33        1.9718           -0.5937505             -16.1568
        34        1.9267           -0.5782265             -15.7343
        35        1.9094           -0.5747462             -15.6396
        36        1.7044           -0.5542130             -15.0809
        37        1.6567           -0.5514001             -15.0044 (HOMO)
        38        0.8647           -0.5221647             -14.2088 (LUMO)
        39        0.0030           -0.4233511             -11.5200
        40        0.0005           -0.3939405             -10.7197
        41        0.0001           -0.3742955             -10.1851
        42        0.0000           -0.2956641              -8.0454
        43                         -0.2109785              -5.7410
        44                         -0.1674246              -4.5559
        45                         -0.1434360              -3.9031
        46                         -0.1327567              -3.6125
        47                         -0.0677817              -1.8444
        48                         -0.0409649              -1.1147
       ...                                ...                  ...
        67                          0.5404218              14.7056
      -------------------------------------------------------------
                  HL-Gap            0.0292354 Eh            0.7955 eV

     #   Z          covCN         q      C6AA      α(0)
     1   6 C        3.692    -0.084    22.290     6.755
     2   7 N        2.847     0.079    19.863     6.619
     3   6 C        2.076    -0.052    32.318     9.184
     4   7 N        2.811    -0.060    22.405     7.030
     5   6 C        3.022     0.116    25.414     8.269
     6   6 C        3.096    -0.011    28.175     8.699
     7   6 C        2.764     0.274    22.370     7.746
     8   8 O        0.858    -0.334    20.402     6.056
     9   7 N        2.745    -0.074    22.671     7.072
    10   6 C        3.709    -0.062    21.835     6.678
    11   6 C        2.730     0.319    21.584     7.606
    12   8 O        0.860    -0.339    20.490     6.069
    13   7 N        2.738    -0.043    22.078     6.979
    14   6 C        3.697    -0.071    22.031     6.714
    15   1 H        0.924     0.111     1.689     2.032
    16   1 H        0.925     0.112     1.682     2.028
    17   1 H        0.925     0.121     1.606     1.982
    18   1 H        0.000     0.122     3.977     3.646
    19   1 H        0.925     0.121     1.606     1.982
    20   1 H        0.924     0.111     1.690     2.033
    21   1 H        0.924     0.111     1.687     2.031
    22   1 H        0.924     0.093     1.847     2.125
    23   1 H        0.924     0.093     1.849     2.126
    24   1 H        0.925     0.129     1.546     1.944
    25   1 H        0.860     0.217     1.021     1.583

Wiberg/Mayer (AO) data.
largest (>0.10) Wiberg bond orders for each atom

     #   Z sym  total        # sym  WBO       # sym  WBO       # sym  WBO
 ---------------------------------------------------------------------------
     1   6 C    3.902 --     2 N    0.997    17 H    0.959    16 H    0.958
                            15 H    0.946
     2   7 N    3.646 --     3 C    1.365     6 C    1.170     1 C    0.997
     3   6 C    2.831 --     2 N    1.365     4 N    1.287
     4   7 N    3.581 --     3 C    1.287     5 C    1.195    25 H    0.924
     5   6 C    3.904 --     6 C    1.319    13 N    1.211     4 N    1.195
     6   6 C    3.820 --     5 C    1.319     2 N    1.170     7 C    1.071
     7   6 C    3.949 --     8 O    1.684     9 N    1.095     6 C    1.071
     8   8 O    1.986 --     7 C    1.684     9 N    0.130
     9   7 N    3.512 --    11 C    1.118     7 C    1.095    10 C    0.975
                             8 O    0.130    12 O    0.124
    10   6 C    3.878 --     9 N    0.975    19 H    0.961    21 H    0.949
                            20 H    0.949
    11   6 C    3.954 --    12 O    1.694     9 N    1.118    13 N    1.049
    12   8 O    2.004 --    11 C    1.694     9 N    0.124    13 N    0.109
    13   7 N    3.497 --     5 C    1.211    11 C    1.049    14 C    0.978
                            12 O    0.109
    14   6 C    3.909 --    13 N    0.978    24 H    0.962    23 H    0.962
                            22 H    0.962
    15   1 H    0.973 --     1 C    0.946
    16   1 H    0.977 --     1 C    0.958
    17   1 H    0.979 --     1 C    0.959
    18   1 H    0.010
    19   1 H    0.979 --    10 C    0.961
    20   1 H    0.967 --    10 C    0.949
    21   1 H    0.967 --    10 C    0.949
    22   1 H    0.978 --    14 C    0.962
    23   1 H    0.978 --    14 C    0.962
    24   1 H    0.982 --    14 C    0.962
    25   1 H    0.952 --     4 N    0.924
 ---------------------------------------------------------------------------

molecular dipole:
                 x           y           z       tot (Debye)
 q only:        1.932      -1.909      -0.001
   full:        1.724      -2.167       0.010       7.039

           -------------------------------------------------
          | TOTAL ENERGY              -42.088397385141 Eh   |
          | GRADIENT NORM               0.001470627135 Eh/α |
          | HOMO-LUMO GAP               0.795535995303 eV   |
           -------------------------------------------------

 * finished run on 2024/06/05 at 19:57:50.200
