   * xtb version 6.6.1 (8d0f1dd) compiled by 'conda@1efc2f54142f' on 2023-08-01
          program call               : xtb struc.xyz --opt loose --input .xc1 --gfn2

   ID    Z sym.   atoms
    1    6 C      1, 3, 5-7, 10, 11, 14
    2    7 N      2, 4, 9, 13
    3    8 O      8, 12
    4    1 H      15-25
constraining bond 8 9 to    4.6800000 Å, actual value:    2.2895399 Å

          :  Hamiltonian                  GFN2-xTB          :
 * total energy  :   -32.0422180 Eh     change       -0.6633627E-10 Eh
 * total energy  :   -35.8633752 Eh     change       -0.3821157E+01 Eh
 * total energy  :   -38.7573303 Eh     change       -0.2893955E+01 Eh
 * total energy  :   -40.5836090 Eh     change       -0.1826279E+01 Eh
 * total energy  :   -41.4683061 Eh     change       -0.8846971E+00 Eh
 * total energy  :   -41.6408836 Eh     change       -0.1725775E+00 Eh
 * total energy  :   -41.6536320 Eh     change       -0.1274846E-01 Eh
 * total energy  :   -41.6809070 Eh     change       -0.2727499E-01 Eh
 * total energy  :   -41.6987211 Eh     change       -0.1781409E-01 Eh
 * total energy  :   -41.7144372 Eh     change       -0.1571611E-01 Eh
 * total energy  :   -42.1275034 Eh     change       -0.4046961E-03 Eh
 * total energy  :   -42.1277160 Eh     change       -0.2126105E-03 Eh
 * total energy  :   -42.1278532 Eh     change       -0.1371633E-03 Eh
 * total energy  :   -42.1279164 Eh     change       -0.6320491E-04 Eh
 * total energy  :   -42.1279884 Eh     change       -0.7199530E-04 Eh
 * total energy  :   -42.1280273 Eh     change       -0.3892446E-04 Eh
 * total energy  :   -42.1280569 Eh     change       -0.2958726E-04 Eh
 * total energy  :   -42.1280975 Eh     change       -0.4060823E-04 Eh
 * total energy  :   -42.1281296 Eh     change       -0.3208184E-04 Eh
   *** GEOMETRY OPTIMIZATION CONVERGED AFTER 63 ITERATIONS ***

 final structure:
================
25
 xtb: 6.6.1 (8d0f1dd)
C            3.89201975449119        1.03105981499555       -0.07480532209002
N            2.82115146836688        0.07408593947164       -0.06682586386029
C            2.91586740075225       -1.23371394425750       -0.06284347868234
N            1.72009490632738       -1.81273158995732       -0.04192927547989
C            0.69061786286257       -0.82764652805220       -0.02354997670686
C            1.45909402645000        0.42941587949987       -0.04494112190015
C            0.95628270590540        1.65205581456347       -0.05339337631891
O            0.43813255722652        2.67802179463742       -0.05910604911506
N           -3.90890509255150        0.94467315447509        0.02274601053312
C           -2.75226921057967        1.71962275228474        0.22563774678672
C           -4.39990028989588       -0.12361482944038       -0.13488436734135
O           -5.03711775026927       -1.07798756748286       -0.28970918346215
N           -0.55220686458131       -0.94895651952896        0.00285387390406
C           -1.25243961163970       -2.19915688470513        0.02041581815325
H            3.88182432447742        1.61798497265223        0.84643715815113
H            4.84590174050149        0.51351127513893       -0.15566979898600
H            3.78218204777355        1.71173384629641       -0.92064844611932
H            3.85136747105048       -1.76684691198241       -0.07264661336153
H           -1.85465563816317        1.09285935971271        0.22855681502509
H           -2.68568926715240        2.46145414612434       -0.57243670349608
H           -2.84217587562817        2.24211981842154        1.18003318020947
H           -1.25178702151605       -2.61115040862703        1.03321891429730
H           -0.82454305942584       -2.94048091756711       -0.66017292045986
H           -2.28410015298075       -2.00048716213172       -0.26445081803217
H            1.55168508229862       -2.80758676294148       -0.03071458374831

          :  Hamiltonian                  GFN2-xTB          :
         :: total energy             -42.128129609275 Eh    ::
         :: gradient norm              0.002943679533 Eh/a0 ::
         :: HOMO-LUMO gap              1.485515520188 eV    ::
         :: SCC energy               -42.755459139613 Eh    ::
         :: -> dispersion             -0.019014846843 Eh    ::
         :: repulsion energy           0.627276137332 Eh    ::

    * Orbital Energies and Occupations

         #    Occupation            Energy/Eh            Energy/eV
      -------------------------------------------------------------
         1        2.0000           -0.9363768             -25.4801
       ...           ...                  ...                  ...
        25        2.0000           -0.6624513             -18.0262
        26        2.0000           -0.6578526             -17.9011
        27        2.0000           -0.6540308             -17.7971
        28        2.0000           -0.6332397             -17.2313
        29        2.0000           -0.6300141             -17.1436
        30        2.0000           -0.6156253             -16.7520
        31        2.0000           -0.6092386             -16.5782
        32        2.0000           -0.6091099             -16.5747
        33        2.0000           -0.6076476             -16.5349
        34        1.9989           -0.5437320             -14.7957
        35        1.9973           -0.5364358             -14.5972
        36        1.9668           -0.5165380             -14.0557
        37        1.9390           -0.5116072             -13.9215 (HOMO)
        38        0.0623           -0.4570155             -12.4360 (LUMO)
        39        0.0358           -0.4525158             -12.3136
        40        0.0000           -0.3873198             -10.5395
        41                         -0.3066963              -8.3456
        42                         -0.2819218              -7.6715
        43                         -0.2576878              -7.0120
        44                         -0.1979961              -5.3877
        45                         -0.1645002              -4.4763
        46                         -0.1110947              -3.0230
        47                         -0.0682836              -1.8581
        48                         -0.0474326              -1.2907
       ...                                ...                  ...
        67                          1.2552781              34.1579
      -------------------------------------------------------------
                  HL-Gap            0.0545917 Eh            1.4855 eV

     #   Z          covCN         q      C6AA      α(0)
     1   6 C        3.692    -0.087    22.364     6.767
     2   7 N        2.801     0.069    20.038     6.648
     3   6 C        2.962     0.094    25.920     8.351
     4   7 N        2.772    -0.089    22.983     7.120
     5   6 C        2.925     0.158    24.581     8.131
     6   6 C        3.045    -0.024    28.557     8.765
     7   6 C        1.844     0.268    25.014     8.079
     8   8 O        0.856    -0.090    16.371     5.425
     9   7 N        1.820    -0.153    25.103     7.424
    10   6 C        3.686    -0.032    21.355     6.616
    11   6 C        1.770     0.308    24.294     7.969
    12   8 O        0.856    -0.259    19.049     5.852
    13   7 N        1.823    -0.229    26.847     7.678
    14   6 C        3.703    -0.037    21.386     6.612
    15   1 H        0.924     0.106     1.728     2.056
    16   1 H        0.925     0.107     1.720     2.051
    17   1 H        0.924     0.106     1.735     2.060
    18   1 H        0.926     0.122     1.594     1.974
    19   1 H        0.924     0.058     2.220     2.330
    20   1 H        0.924     0.084     1.942     2.179
    21   1 H        0.924     0.085     1.931     2.173
    22   1 H        0.924     0.076     2.026     2.226
    23   1 H        0.924     0.049     2.336     2.390
    24   1 H        0.925     0.086     1.917     2.165
    25   1 H        0.860     0.226     0.984     1.554

Wiberg/Mayer (AO) data.
largest (>0.10) Wiberg bond orders for each atom

     #   Z sym  total        # sym  WBO       # sym  WBO       # sym  WBO
 ---------------------------------------------------------------------------
     1   6 C    3.930 --     2 N    0.991    16 H    0.972    17 H    0.963
                            15 H    0.960
     2   7 N    3.676 --     3 C    1.439     6 C    1.036     1 C    0.991
                             4 N    0.131
     3   6 C    3.929 --     2 N    1.439     4 N    1.355    18 H    0.945
     4   7 N    3.578 --     3 C    1.355     5 C    1.004    25 H    0.920
                             2 N    0.131    13 N    0.104
     5   6 C    3.949 --    13 N    1.768     6 C    1.019     4 N    1.004
     6   6 C    3.896 --     7 C    1.511     2 N    1.036     5 C    1.019
                             8 O    0.171
     7   6 C    3.832 --     8 O    2.137     6 C    1.511
     8   8 O    2.464 --     7 C    2.137     6 C    0.171
     9   7 N    3.376 --    11 C    1.986    10 C    1.021    12 O    0.366
    10   6 C    3.945 --     9 N    1.021    20 H    0.961    21 H    0.961
                            19 H    0.960
    11   6 C    3.941 --     9 N    1.986    12 O    1.889
    12   8 O    2.297 --    11 C    1.889     9 N    0.366
    13   7 N    3.125 --     5 C    1.768    14 C    1.020     4 N    0.104
    14   6 C    3.966 --    13 N    1.020    24 H    0.973    23 H    0.968
                            22 H    0.951
    15   1 H    0.988 --     1 C    0.960
    16   1 H    0.988 --     1 C    0.972
    17   1 H    0.988 --     1 C    0.963
    18   1 H    0.983 --     3 C    0.945
    19   1 H    0.990 --    10 C    0.960
    20   1 H    0.984 --    10 C    0.961
    21   1 H    0.983 --    10 C    0.961
    22   1 H    0.989 --    14 C    0.951
    23   1 H    0.995 --    14 C    0.968
    24   1 H    0.991 --    14 C    0.973
    25   1 H    0.947 --     4 N    0.920
 ---------------------------------------------------------------------------

molecular dipole:
                 x           y           z       tot (Debye)
 q only:        4.386      -0.257       0.110
   full:        4.918      -0.775       0.115      12.658

           -------------------------------------------------
          | TOTAL ENERGY              -42.128129609275 Eh   |
          | GRADIENT NORM               0.002943679533 Eh/α |
          | HOMO-LUMO GAP               1.485515520188 eV   |
           -------------------------------------------------

 * finished run on 2024/06/05 at 19:58:03.620
