   * xtb version 6.6.1 (8d0f1dd) compiled by 'conda@1efc2f54142f' on 2023-08-01
          program call               : xtb struc.xyz --opt loose --input .xc1 --gfn2

   ID    Z sym.   atoms
    1    6 C      1, 3, 5-7, 10, 11, 14
    2    7 N      2, 4, 9, 13
    3    8 O      8, 12
    4    1 H      15-25
constraining bond 6 16 to    5.1400000 Å, actual value:    3.2546852 Å

          :  Hamiltonian                  GFN2-xTB          :
 * total energy  :   -29.5548260 Eh     change       -0.6650680E-10 Eh
 * total energy  :   -36.1421104 Eh     change       -0.6587284E+01 Eh
 * total energy  :   -39.9848766 Eh     change       -0.3842766E+01 Eh
 * total energy  :   -41.5738550 Eh     change       -0.1588978E+01 Eh
 * total energy  :   -41.8611750 Eh     change       -0.2873200E+00 Eh
 * total energy  :   -41.8938257 Eh     change       -0.3265064E-01 Eh
 * total energy  :   -41.9070669 Eh     change       -0.1324125E-01 Eh
 * total energy  :   -41.9380164 Eh     change       -0.3094952E-01 Eh
 * total energy  :   -41.9491236 Eh     change       -0.1110713E-01 Eh
 * total energy  :   -41.9584393 Eh     change       -0.9315670E-02 Eh
 * total energy  :   -42.1085803 Eh     change       -0.1235409E-03 Eh
 * total energy  :   -42.1087253 Eh     change       -0.1450228E-03 Eh
 * total energy  :   -42.1088943 Eh     change       -0.1690480E-03 Eh
 * total energy  :   -42.1090055 Eh     change       -0.1112039E-03 Eh
 * total energy  :   -42.1091720 Eh     change       -0.1664998E-03 Eh
 * total energy  :   -42.1092754 Eh     change       -0.1033763E-03 Eh
 * total energy  :   -42.1093755 Eh     change       -0.1000591E-03 Eh
 * total energy  :   -42.1094516 Eh     change       -0.7611434E-04 Eh
 * total energy  :   -42.1095006 Eh     change       -0.4904912E-04 Eh
   *** GEOMETRY OPTIMIZATION CONVERGED AFTER 46 ITERATIONS ***

 final structure:
================
25
 xtb: 6.6.1 (8d0f1dd)
C            3.02329350059507        1.16605578709964        0.00359642042678
N            2.18357493709411        0.13872323019478        0.00548245131033
C            2.47745045281100       -1.18253809028483       -0.00935778067386
N            1.32851477834314       -1.91290808016206       -0.00144094021828
C            0.27610167746320       -1.05123001465759        0.01895224184037
C            0.79057745640635        0.23399139787422        0.02526627923793
C           -0.05802985381683        1.40266925066008        0.03449279632821
O            0.31948739018994        2.55012246618397        0.04461266289766
N           -1.40793967469913        1.04485618811034        0.02676405591644
C           -2.38461938267550        2.12418627318985        0.01496665504646
C           -1.94728088961147       -0.22787458488057        0.02496437612183
O           -3.12974109681808       -0.42483733546797        0.02150548949859
N           -1.04097246690484       -1.31283046126080        0.02556866733714
C           -1.56440060383312       -2.66249150826478        0.02557522444463
H            4.10606370724205        1.00703182472385       -0.03889755774963
H            5.84659213723270        1.10529478191360       -0.27989792385237
H            2.61265152548342        2.16190339516381        0.01305540459338
H            3.46418600368233       -1.59734939117234       -0.02522979082212
H           -1.84449701699150        3.06801242672100        0.03145345435000
H           -3.00038926568155        2.05518397063356       -0.88156379942575
H           -3.03749327448465        2.04419065723682        0.88387216147759
H           -1.25805278078695       -3.19389604578542        0.92705646506858
H           -1.23058300055306       -3.20409554594946       -0.86024034382255
H           -2.65216120731186       -2.59233072995688        0.00885736245885
H            1.28809846172523       -2.92160132026285       -0.00824241389002

          :  Hamiltonian                  GFN2-xTB          :
         :: total energy             -42.109500640763 Eh    ::
         :: gradient norm              0.002709809887 Eh/a0 ::
         :: HOMO-LUMO gap              0.215653301393 eV    ::
         :: SCC energy               -42.629564841032 Eh    ::
         :: -> dispersion             -0.022821384695 Eh    ::
         :: repulsion energy           0.519992818270 Eh    ::

    * Orbital Energies and Occupations

         #    Occupation            Energy/Eh            Energy/eV
      -------------------------------------------------------------
         1        2.0000           -0.9131669             -24.8485
       ...           ...                  ...                  ...
        25        1.9999           -0.6701160             -18.2348
        26        1.9999           -0.6698932             -18.2287
        27        1.9999           -0.6608457             -17.9825
        28        1.9995           -0.6398489             -17.4112
        29        1.9993           -0.6344261             -17.2636
        30        1.9991           -0.6286555             -17.1066
        31        1.9985           -0.6213353             -16.9074
        32        1.9950           -0.6022334             -16.3876
        33        1.9840           -0.5836155             -15.8810
        34        1.9541           -0.5667103             -15.4210
        35        1.9476           -0.5645441             -15.3620
        36        1.9418           -0.5628398             -15.3157
        37        1.2099           -0.5140576             -13.9882 (HOMO)
        38        0.9629           -0.5061325             -13.7726 (LUMO)
        39        0.0053           -0.4134674             -11.2510
        40        0.0029           -0.4040447             -10.9946
        41        0.0004           -0.3710103             -10.0957
        42        0.0000           -0.2891324              -7.8677
        43                         -0.2096063              -5.7037
        44                         -0.1888521              -5.1389
        45                         -0.1465154              -3.9869
        46                         -0.1181236              -3.2143
        47                         -0.0854358              -2.3248
        48                         -0.0528930              -1.4393
       ...                                ...                  ...
        67                          0.5516331              15.0107
      -------------------------------------------------------------
                  HL-Gap            0.0079251 Eh            0.2157 eV

     #   Z          covCN         q      C6AA      α(0)
     1   6 C        2.787    -0.065    29.600     8.912
     2   7 N        2.807     0.132    19.001     6.474
     3   6 C        3.034     0.026    27.383     8.583
     4   7 N        2.779    -0.058    22.352     7.022
     5   6 C        3.020     0.120    25.340     8.257
     6   6 C        3.108    -0.038    28.794     8.792
     7   6 C        2.764     0.275    22.354     7.743
     8   8 O        0.858    -0.355    20.799     6.115
     9   7 N        2.746    -0.079    22.783     7.089
    10   6 C        3.710    -0.063    21.848     6.680
    11   6 C        2.727     0.318    21.594     7.608
    12   8 O        0.860    -0.348    20.665     6.095
    13   7 N        2.739    -0.052    22.242     7.004
    14   6 C        3.697    -0.073    22.079     6.721
    15   1 H        0.924     0.117     1.634     1.999
    16   1 H        0.000     0.021     6.787     4.764
    17   1 H        0.926     0.143     1.443     1.878
    18   1 H        0.926     0.122     1.596     1.976
    19   1 H        0.925     0.117     1.635     2.000
    20   1 H        0.925     0.104     1.750     2.068
    21   1 H        0.925     0.105     1.741     2.063
    22   1 H        0.924     0.087     1.911     2.162
    23   1 H        0.924     0.086     1.923     2.168
    24   1 H        0.925     0.130     1.538     1.940
    25   1 H        0.860     0.229     0.970     1.543

Wiberg/Mayer (AO) data.
largest (>0.10) Wiberg bond orders for each atom

     #   Z sym  total        # sym  WBO       # sym  WBO       # sym  WBO
 ---------------------------------------------------------------------------
     1   6 C    3.337 --     2 N    1.338    17 H    0.951    15 H    0.903
     2   7 N    3.764 --     1 C    1.338     3 C    1.245     6 C    1.083
     3   6 C    3.637 --     2 N    1.245     4 N    1.242    18 H    0.955
     4   7 N    3.526 --     3 C    1.242     5 C    1.193    25 H    0.919
     5   6 C    3.938 --     6 C    1.350    13 N    1.218     4 N    1.193
     6   6 C    3.839 --     5 C    1.350     7 C    1.085     2 N    1.083
     7   6 C    3.959 --     8 O    1.686     9 N    1.093     6 C    1.085
     8   8 O    2.019 --     7 C    1.686     9 N    0.138
     9   7 N    3.530 --    11 C    1.126     7 C    1.093    10 C    0.972
                             8 O    0.138    12 O    0.133
    10   6 C    3.896 --     9 N    0.972    19 H    0.965    21 H    0.957
                            20 H    0.957
    11   6 C    3.958 --    12 O    1.707     9 N    1.126    13 N    1.034
    12   8 O    2.046 --    11 C    1.707     9 N    0.133    13 N    0.117
    13   7 N    3.531 --     5 C    1.218    11 C    1.034    14 C    0.976
                            12 O    0.117
    14   6 C    3.918 --    13 N    0.976    23 H    0.968    22 H    0.967
                            24 H    0.962
    15   1 H    0.985 --     1 C    0.903
    16   1 H    0.071
    17   1 H    0.976 --     1 C    0.951
    18   1 H    0.984 --     3 C    0.955
    19   1 H    0.983 --    10 C    0.965
    20   1 H    0.976 --    10 C    0.957
    21   1 H    0.976 --    10 C    0.957
    22   1 H    0.985 --    14 C    0.967
    23   1 H    0.986 --    14 C    0.968
    24   1 H    0.982 --    14 C    0.962
    25   1 H    0.947 --     4 N    0.919
 ---------------------------------------------------------------------------

molecular dipole:
                 x           y           z       tot (Debye)
 q only:        2.155      -1.936      -0.021
   full:        2.446      -2.395      -0.031       8.702

           -------------------------------------------------
          | TOTAL ENERGY              -42.109500640763 Eh   |
          | GRADIENT NORM               0.002709809887 Eh/α |
          | HOMO-LUMO GAP               0.215653301393 eV   |
           -------------------------------------------------

 * finished run on 2024/06/05 at 19:59:14.238
