   * xtb version 6.6.1 (8d0f1dd) compiled by 'conda@1efc2f54142f' on 2023-08-01
          program call               : xtb xtbopt.xyz --opt crude --input .xc2 --gfn2

   ID    Z sym.   atoms
    1    6 C      1, 3, 5-7, 10, 11, 14
    2    7 N      2, 4, 9, 13
    3    8 O      8, 12
    4    1 H      15-25
########################################################################
[WARNING] Please study the warnings concerning your input carefully
-1- readin_getIntValue: could not parse ''
########################################################################

          :  Hamiltonian                  GFN2-xTB          :
 * total energy  :   -42.1433813 Eh     change        0.0000000E+00 Eh
 * total energy  :   -42.1439618 Eh     change       -0.5805255E-03 Eh
 * total energy  :   -42.1452950 Eh     change       -0.1333180E-02 Eh
 * total energy  :   -42.1458946 Eh     change       -0.5996127E-03 Eh
 * total energy  :   -42.1463267 Eh     change       -0.4321052E-03 Eh
 * total energy  :   -42.1466718 Eh     change       -0.3450691E-03 Eh
   *** GEOMETRY OPTIMIZATION CONVERGED AFTER 6 ITERATIONS ***

 final structure:
================
25
 xtb: 6.6.1 (8d0f1dd)
C            2.98530257776333        1.25112748681316       -0.23006245060424
N            2.24757989811382        0.02112896486783       -0.13533751506219
C            2.75634842730615       -1.18913600136747       -0.22445207153414
N            1.79092476741951       -2.10445547058667       -0.15609770057801
C            0.54193526758446       -1.49484206312893        0.01395295784314
C            0.85287880962011       -0.07487280633339       -0.02922576361352
C            0.07980771498801        1.08566628501702        0.07680555064624
O            0.36659981968789        2.22762176635244        0.31021192195232
N           -1.42717901160327        0.85270048446804       -0.25294825781769
C           -2.37996942761490        1.57183212001996        0.58678624122450
C           -1.65057657532559        0.42112458443889       -1.40347878543385
O           -1.69784963972750       -0.03704876639145       -2.46065672026674
N           -0.45268968046732       -2.26400062445390        0.19522643567263
C           -1.79204406858085       -2.00591091601609        0.57205642142904
H            2.82571500407063        1.86098081976587        0.65955873066100
H            4.04504173512537        1.03084314834103       -0.33652815688914
H            2.64828615426234        1.82641642707911       -1.09395857783139
H            3.80239751631229       -1.40596960487258       -0.33530405696972
H           -1.93799424080129        2.53563445724670        0.84488696589730
H           -3.31944304397748        1.72143313045213        0.06187416174380
H           -2.55207251185979        0.99973021040501        1.49870360039952
H           -2.18687512550257       -2.93985142345732        0.97620754685843
H           -2.41485170342558       -1.73535898208736       -0.28619064106672
H           -1.87237745068627       -1.22925466029539        1.33753269339358
H            1.90153630141970       -3.10730002467683       -0.15839091215048

          :  Hamiltonian                  GFN2-xTB          :
         :: total energy             -42.146671760566 Eh    ::
         :: gradient norm              0.007860756028 Eh/a0 ::
         :: HOMO-LUMO gap              1.795711357133 eV    ::
         :: SCC energy               -42.710312755725 Eh    ::
         :: -> dispersion             -0.022926314433 Eh    ::
         :: repulsion energy           0.563393813346 Eh    ::

    * Orbital Energies and Occupations

         #    Occupation            Energy/Eh            Energy/eV
      -------------------------------------------------------------
         1        2.0000           -0.9380037             -25.5244
       ...           ...                  ...                  ...
        25        2.0000           -0.6746473             -18.3581
        26        2.0000           -0.6718208             -18.2812
        27        2.0000           -0.6566851             -17.8693
        28        1.9999           -0.6454869             -17.5646
        29        1.9999           -0.6375785             -17.3494
        30        1.9999           -0.6331601             -17.2292
        31        1.9997           -0.6187421             -16.8368
        32        1.9993           -0.6044844             -16.4489
        33        1.9991           -0.6007533             -16.3473
        34        1.9987           -0.5941495             -16.1676
        35        1.9982           -0.5889189             -16.0253
        36        1.8692           -0.5201794             -14.1548
        37        1.8111           -0.5138498             -13.9826 (HOMO)
        38        0.2585           -0.4478586             -12.1869 (LUMO)
        39        0.0580           -0.4224762             -11.4962
        40        0.0056           -0.3849990             -10.4764
        41        0.0028           -0.3739665             -10.1761
        42        0.0000           -0.3044334              -8.2841
        43        0.0000           -0.2405556              -6.5459
        44                         -0.1693706              -4.6088
        45                         -0.1326935              -3.6108
        46                         -0.0954556              -2.5975
        47                         -0.0695293              -1.8920
        48                         -0.0329687              -0.8971
       ...                                ...                  ...
        67                          0.9656419              26.2765
      -------------------------------------------------------------
                  HL-Gap            0.0659912 Eh            1.7957 eV

     #   Z          covCN         q      C6AA      α(0)
     1   6 C        3.693    -0.084    22.286     6.755
     2   7 N        2.817     0.064    20.126     6.663
     3   6 C        2.973     0.076    26.309     8.414
     4   7 N        2.802    -0.073    22.653     7.069
     5   6 C        2.928     0.139    24.976     8.196
     6   6 C        3.050    -0.054    29.299     8.877
     7   6 C        2.760     0.254    22.727     7.807
     8   8 O        0.857    -0.331    20.346     6.048
     9   7 N        2.714    -0.040    22.021     6.970
    10   6 C        3.696    -0.062    21.877     6.691
    11   6 C        1.804     0.314    24.142     7.940
    12   8 O        0.856    -0.131    16.983     5.525
    13   7 N        1.835    -0.224    26.744     7.664
    14   6 C        3.689    -0.034    21.379     6.618
    15   1 H        0.924     0.118     1.633     1.999
    16   1 H        0.925     0.096     1.824     2.112
    17   1 H        0.924     0.105     1.743     2.064
    18   1 H        0.926     0.116     1.649     2.008
    19   1 H        0.924     0.126     1.569     1.959
    20   1 H        0.925     0.097     1.816     2.107
    21   1 H        0.925     0.100     1.781     2.087
    22   1 H        0.924     0.096     1.822     2.111
    23   1 H        0.924     0.058     2.224     2.332
    24   1 H        0.924     0.047     2.359     2.402
    25   1 H        0.860     0.231     0.961     1.535

Wiberg/Mayer (AO) data.
largest (>0.10) Wiberg bond orders for each atom

     #   Z sym  total        # sym  WBO       # sym  WBO       # sym  WBO
 ---------------------------------------------------------------------------
     1   6 C    3.930 --     2 N    0.992    16 H    0.974    17 H    0.960
                            15 H    0.958
     2   7 N    3.666 --     3 C    1.414     6 C    1.086     1 C    0.992
                             4 N    0.110
     3   6 C    3.889 --     2 N    1.414     4 N    1.329    18 H    0.950
     4   7 N    3.561 --     3 C    1.329     5 C    1.077    25 H    0.919
                             2 N    0.110
     5   6 C    3.942 --    13 N    1.612     6 C    1.119     4 N    1.077
     6   6 C    3.809 --     7 C    1.261     5 C    1.119     2 N    1.086
                             8 O    0.111
     7   6 C    3.859 --     8 O    1.730     6 C    1.261     9 N    0.720
     8   8 O    2.106 --     7 C    1.730     6 C    0.111
     9   7 N    3.559 --    11 C    1.568    10 C    0.932     7 C    0.720
                            12 O    0.230
    10   6 C    3.890 --    20 H    0.977    21 H    0.965    19 H    0.959
                             9 N    0.932
    11   6 C    3.735 --    12 O    2.045     9 N    1.568
    12   8 O    2.371 --    11 C    2.045     9 N    0.230
    13   7 N    2.925 --     5 C    1.612    14 C    1.049
    14   6 C    3.950 --    13 N    1.049    22 H    0.959    24 H    0.956
                            23 H    0.945
    15   1 H    0.984 --     1 C    0.958
    16   1 H    0.990 --     1 C    0.974
    17   1 H    0.986 --     1 C    0.960
    18   1 H    0.985 --     3 C    0.950
    19   1 H    0.984 --    10 C    0.959
    20   1 H    0.990 --    10 C    0.977
    21   1 H    0.989 --    10 C    0.965
    22   1 H    0.973 --    14 C    0.959
    23   1 H    0.978 --    14 C    0.945
    24   1 H    0.980 --    14 C    0.956
    25   1 H    0.946 --     4 N    0.919
 ---------------------------------------------------------------------------

molecular dipole:
                 x           y           z       tot (Debye)
 q only:        1.116      -0.659      -0.046
   full:        1.146      -0.662      -0.128       3.379

           -------------------------------------------------
          | TOTAL ENERGY              -42.146671760566 Eh   |
          | GRADIENT NORM               0.007860756028 Eh/α |
          | HOMO-LUMO GAP               1.795711357133 eV   |
           -------------------------------------------------

 * finished run on 2024/06/05 at 19:58:06.798
