   * xtb version 6.6.1 (8d0f1dd) compiled by 'conda@1efc2f54142f' on 2023-08-01
          program call               : xtb struc.xyz --opt loose --input .xc1 --gfn2

   ID    Z sym.   atoms
    1    6 C      1, 3, 5-7, 10, 11, 14
    2    7 N      2, 4, 9, 13
    3    8 O      8, 12
    4    1 H      15-25
constraining bond 6 13 to    4.9200000 Å, actual value:    2.4008916 Å

          :  Hamiltonian                  GFN2-xTB          :
 * total energy  :   -30.9144623 Eh     change       -0.6633627E-10 Eh
 * total energy  :   -35.0093289 Eh     change       -0.4094867E+01 Eh
 * total energy  :   -38.0940678 Eh     change       -0.3084739E+01 Eh
 * total energy  :   -40.0223303 Eh     change       -0.1928262E+01 Eh
 * total energy  :   -41.0802625 Eh     change       -0.1057932E+01 Eh
 * total energy  :   -41.3691101 Eh     change       -0.2888476E+00 Eh
 * total energy  :   -41.4093359 Eh     change       -0.4022581E-01 Eh
 * total energy  :   -41.4596344 Eh     change       -0.5029848E-01 Eh
 * total energy  :   -41.5030147 Eh     change       -0.4338027E-01 Eh
 * total energy  :   -41.5271951 Eh     change       -0.2418040E-01 Eh
 * total energy  :   -42.1670974 Eh     change       -0.7964978E-04 Eh
 * total energy  :   -42.1671929 Eh     change       -0.9554507E-04 Eh
 * total energy  :   -42.1673065 Eh     change       -0.1136061E-03 Eh
 * total energy  :   -42.1665593 Eh     change        0.7472708E-03 Eh
 * total energy  :   -42.1674906 Eh     change       -0.9313211E-03 Eh
 * total energy  :   -42.1675608 Eh     change       -0.7018958E-04 Eh
 * total energy  :   -42.1676114 Eh     change       -0.5059951E-04 Eh
 * total energy  :   -42.1677169 Eh     change       -0.1055511E-03 Eh
 * total energy  :   -42.1677480 Eh     change       -0.3111069E-04 Eh
   *** GEOMETRY OPTIMIZATION CONVERGED AFTER 108 ITERATIONS ***

 final structure:
================
25
 xtb: 6.6.1 (8d0f1dd)
C            3.17912274697908        1.36598014093685        0.08970522595654
N            2.77002291099749        0.06548001605069       -0.37196217066800
C            2.59061561986256       -1.13319716223118        0.16676696682763
N            1.41171637361503       -1.71342380379275        0.26894975578501
C            0.13473882406616       -1.18547328983841        0.11908801677415
C            1.84988807243634        1.13633145026686       -0.53614311295454
C           -0.18827602029029        0.14437224881934        0.11643301684830
O            0.71601109102594        1.15779094526619        0.26511320828185
N           -1.47321183815013        0.57302136161733        0.03031302638722
C           -1.78049407074869        1.98612018392434        0.14370899508809
C           -2.55729722062472       -0.31258069915906       -0.19909900248601
O           -3.67236024679722        0.09997607404451       -0.35036141539453
N           -2.21930442368091       -1.61740471844627       -0.29163085354627
C           -0.96309179594905       -2.22134473266404        0.07488046481076
H            3.22047092926844        1.52398531016968        1.16026847443364
H            3.95913287744511        1.84273097725203       -0.48722493691094
H            1.67467169871391        1.45300829247013       -1.56130096642187
H            3.47351569741840       -1.69748520545125        0.43460945991311
H           -1.19179123760033        2.56872969243595       -0.56509772977549
H           -2.84120853182420        2.10088697031858       -0.07397524980088
H           -1.57289580810464        2.33787840820819        1.15505307437026
H           -1.04788714063891       -2.71541713895240        1.05885207244673
H           -0.72172743070593       -2.99375172087694       -0.66799595382525
H           -3.00130658433398       -2.24179199031002       -0.43268108944928
H            1.41137702172143       -2.70618306845924        0.48490234120999

          :  Hamiltonian                  GFN2-xTB          :
         :: total energy             -42.167748038034 Eh    ::
         :: gradient norm              0.002390212576 Eh/a0 ::
         :: HOMO-LUMO gap              2.000148345708 eV    ::
         :: SCC energy               -42.673071851522 Eh    ::
         :: -> dispersion             -0.022255216203 Eh    ::
         :: repulsion energy           0.505163910170 Eh    ::

    * Orbital Energies and Occupations

         #    Occupation            Energy/Eh            Energy/eV
      -------------------------------------------------------------
         1        2.0000           -0.9080934             -24.7105
       ...           ...                  ...                  ...
        25        2.0000           -0.6656299             -18.1127
        26        2.0000           -0.6590569             -17.9339
        27        2.0000           -0.6455706             -17.5669
        28        2.0000           -0.6440027             -17.5242
        29        2.0000           -0.6372964             -17.3417
        30        2.0000           -0.6289037             -17.1133
        31        2.0000           -0.6180457             -16.8179
        32        2.0000           -0.6051465             -16.4669
        33        2.0000           -0.5932222             -16.1424
        34        2.0000           -0.5831252             -15.8676
        35        1.9997           -0.5484306             -14.9236
        36        1.9994           -0.5434956             -14.7893
        37        1.9814           -0.5161494             -14.0451 (HOMO)
        38        0.0196           -0.4426453             -12.0450 (LUMO)
        39        0.0000           -0.3662262              -9.9655
        40                         -0.3079193              -8.3789
        41                         -0.2761635              -7.5148
        42                         -0.1947065              -5.2982
        43                         -0.1669622              -4.5433
        44                         -0.1453301              -3.9546
        45                         -0.1260026              -3.4287
        46                         -0.1136999              -3.0939
        47                         -0.1039422              -2.8284
        48                         -0.0592705              -1.6128
       ...                                ...                  ...
        67                          0.5544483              15.0873
      -------------------------------------------------------------
                  HL-Gap            0.0735041 Eh            2.0001 eV

     #   Z          covCN         q      C6AA      α(0)
     1   6 C        3.738    -0.015    20.926     6.528
     2   7 N        2.734    -0.062    22.450     7.037
     3   6 C        2.759     0.089    26.005     8.351
     4   7 N        2.693    -0.043    22.080     6.979
     5   6 C        2.886    -0.018    28.460     8.746
     6   6 C        3.695     0.173    17.985     6.067
     7   6 C        2.799     0.197    23.796     7.991
     8   8 O        1.707    -0.251    18.161     5.754
     9   7 N        2.743    -0.068    22.563     7.055
    10   6 C        3.700    -0.065    21.917     6.695
    11   6 C        2.697     0.325    21.478     7.585
    12   8 O        0.860    -0.382    21.325     6.191
    13   7 N        2.691    -0.187    25.060     7.435
    14   6 C        3.742    -0.006    20.766     6.501
    15   1 H        0.925     0.110     1.701     2.039
    16   1 H        0.926     0.117     1.636     2.000
    17   1 H        0.925     0.090     1.883     2.146
    18   1 H        0.925     0.114     1.662     2.016
    19   1 H        0.925     0.079     1.987     2.205
    20   1 H        0.925     0.120     1.616     1.988
    21   1 H        0.924     0.086     1.922     2.168
    22   1 H        0.923     0.070     2.083     2.257
    23   1 H        0.923     0.079     1.990     2.206
    24   1 H        0.860     0.223     0.998     1.565
    25   1 H        0.860     0.228     0.972     1.544

Wiberg/Mayer (AO) data.
largest (>0.10) Wiberg bond orders for each atom

     #   Z sym  total        # sym  WBO       # sym  WBO       # sym  WBO
 ---------------------------------------------------------------------------
     1   6 C    3.894 --     6 C    0.963    16 H    0.962    15 H    0.960
                             2 N    0.918
     2   7 N    3.432 --     3 C    1.317     6 C    0.947     1 C    0.918
                             4 N    0.115
     3   6 C    3.923 --     4 N    1.403     2 N    1.317    18 H    0.942
     4   7 N    3.629 --     3 C    1.403     5 C    1.105    25 H    0.914
                             2 N    0.115
     5   6 C    3.905 --     7 C    1.482     4 N    1.105    14 C    0.998
     6   6 C    3.891 --     8 O    0.972     1 C    0.963     2 N    0.947
                            17 H    0.943
     7   6 C    3.931 --     5 C    1.482     9 N    1.209     8 O    1.033
     8   8 O    2.223 --     7 C    1.033     6 C    0.972
     9   7 N    3.554 --     7 C    1.209    11 C    1.003    10 C    0.978
    10   6 C    3.928 --     9 N    0.978    19 H    0.972    21 H    0.969
                            20 H    0.965
    11   6 C    3.959 --    12 O    1.691    13 N    1.208     9 N    1.003
    12   8 O    2.052 --    11 C    1.691    13 N    0.181
    13   7 N    3.393 --    11 C    1.208    14 C    1.004    24 H    0.921
                            12 O    0.181
    14   6 C    3.973 --    13 N    1.004     5 C    0.998    23 H    0.958
                            22 H    0.950
    15   1 H    0.987 --     1 C    0.960
    16   1 H    0.985 --     1 C    0.962
    17   1 H    0.991 --     6 C    0.943
    18   1 H    0.986 --     3 C    0.942
    19   1 H    0.990 --    10 C    0.972
    20   1 H    0.985 --    10 C    0.965
    21   1 H    0.988 --    10 C    0.969
    22   1 H    0.993 --    14 C    0.950
    23   1 H    0.992 --    14 C    0.958
    24   1 H    0.950 --    13 N    0.921
    25   1 H    0.947 --     4 N    0.914
 ---------------------------------------------------------------------------

molecular dipole:
                 x           y           z       tot (Debye)
 q only:        2.980      -1.240       0.113
   full:        3.225      -1.662       0.229       9.239

           -------------------------------------------------
          | TOTAL ENERGY              -42.167748038034 Eh   |
          | GRADIENT NORM               0.002390212576 Eh/α |
          | HOMO-LUMO GAP               2.000148345708 eV   |
           -------------------------------------------------

 * finished run on 2024/06/05 at 19:58:04.209
