   * xtb version 6.6.1 (8d0f1dd) compiled by 'conda@1efc2f54142f' on 2023-08-01
          program call               : xtb struc.xyz --opt loose --input .xc1 --gfn2

   ID    Z sym.   atoms
    1    7 N      1, 17
    2    6 C      2-6, 8, 9, 11-16, 18-23, 25, 26, 28-33
    3    8 O      7, 10, 24, 27
    4    1 H      34-72
constraining bond 5 36 to    4.7133300 Å, actual value:    3.8967431 Å

          :  Hamiltonian                  GFN2-xTB          :
 * total energy  :   -99.5231927 Eh     change       -0.4035485E-08 Eh
 * total energy  :   -99.6689642 Eh     change       -0.1457715E+00 Eh
 * total energy  :   -99.8140615 Eh     change       -0.1450973E+00 Eh
 * total energy  :   -99.9828779 Eh     change       -0.1688164E+00 Eh
 * total energy  :  -100.3756590 Eh     change       -0.3927811E+00 Eh
 * total energy  :  -100.7916561 Eh     change       -0.4159971E+00 Eh
 * total energy  :  -101.3786714 Eh     change       -0.5870153E+00 Eh
 * total energy  :  -100.6775062 Eh     change        0.7011652E+00 Eh
 * total energy  :  -101.5210415 Eh     change       -0.8435353E+00 Eh
 * total energy  :  -101.4630755 Eh     change        0.5796604E-01 Eh
 * total energy  :  -101.9885178 Eh     change       -0.4992677E-04 Eh
 * total energy  :  -101.9886040 Eh     change       -0.8613455E-04 Eh
 * total energy  :  -101.9887247 Eh     change       -0.1206892E-03 Eh
 * total energy  :  -101.9888330 Eh     change       -0.1082890E-03 Eh
 * total energy  :  -101.9889520 Eh     change       -0.1190905E-03 Eh
 * total energy  :  -101.9890508 Eh     change       -0.9873584E-04 Eh
 * total energy  :  -101.9891177 Eh     change       -0.6690687E-04 Eh
 * total energy  :  -101.9891568 Eh     change       -0.3912809E-04 Eh
 * total energy  :  -101.9892040 Eh     change       -0.4721225E-04 Eh
   *** GEOMETRY OPTIMIZATION CONVERGED AFTER 96 ITERATIONS ***

 final structure:
================
72
 xtb: 6.6.1 (8d0f1dd)
N           -1.50078464834682        2.94161089913891        2.23683984344495
C           -1.73396860211421        2.08147245659963        1.36064569949557
C           -2.95366376379555        2.07836493147827        0.48517299595598
C           -3.60053969751334        0.71966467119251        0.50301712705156
C           -5.25134506434885       -2.54080924086443       -1.87292715393481
C           -4.21706171399303       -2.03755125949403       -0.94835606446667
O           -3.17180448817114       -1.49796909943588       -1.30933747909009
C           -5.10033612598190       -2.25253577029597       -3.17735225843636
C           -4.51646844225658       -2.27096529274329        0.48876359090984
O           -5.26319995771064       -3.38826769348828        0.65593278942083
C           -5.67990710978071       -3.76581687504654        1.94684492445542
C           -4.03965787124964       -1.50632803187111        1.50730551900000
C           -3.38404808136292       -0.22991925103818        1.42238731907612
C           -2.48085017507897        2.37511074380949       -0.96267632311190
C           -1.66176022400789        1.24153550412208       -1.59436274942638
C           -0.29202661517146        1.15182300905239       -1.05561684594369
N            0.42541783571228        0.05530020553708       -0.94790313554674
C            1.79622420634393        0.11268785639638       -0.49301904923557
C            2.79992286138045       -0.11648465177570       -1.63799302064012
C            4.20221263546702        0.02206021347167       -1.11295767732914
C            4.86402172350527        1.23788591584766       -1.16861361139477
C            6.14600664758013        1.37254331968857       -0.65837539196125
C            6.79086770587319        0.29204345603867       -0.07343633291211
O            8.02954427240005        0.30592480035104        0.45062213473382
C            8.79051929117611        1.49048041827948        0.38977781701502
C            6.11639226151608       -0.95932993090459       -0.00486145853828
O            6.81298926922262       -1.95322355257552        0.57941557058175
C            6.24006520858892       -3.23555783656737        0.67418796300856
C            4.83597522294956       -1.06982230323543       -0.52393414071300
C           -0.05657634800417       -1.24060588374289       -1.35823007955420
C           -4.03692530222041        3.12010677447831        0.90058481259497
C           -4.52045870753543        2.88291526688969        2.32933995498535
C           -3.57539301755537        4.56729979972441        0.75238087578438
H           -4.33287829442553        0.55754559258991       -0.27538823672854
H           -5.82381919733541       -2.57515314082156       -3.90429039187121
H           -5.81793278836173       -2.93204953866604       -1.59589657019980
H           -4.25887959435535       -1.68676104388901       -3.54182648086922
H           -6.22622651468773       -2.95917642115546        2.44229736826770
H           -6.33888273854538       -4.61930094476934        1.80080675063504
H           -4.83042441171757       -4.06812445661001        2.56620942561902
H           -4.16950304295264       -1.86847607750360        2.51838386142850
H           -2.72177240257429       -0.01348922832721        2.25314426406199
H           -3.36953294669732        2.53216761082968       -1.57380618403016
H           -1.89805833697470        3.29652461763482       -0.96803448709702
H           -2.19953002908797        0.29783262466982       -1.49891012042478
H           -1.58236504014469        1.45089916627284       -2.66872932503559
H           -1.04556897726961        1.25355153827540        1.11709078120185
H            0.19962149226233        2.07708216442331       -0.78636626190068
H            1.94750387957550       -0.65243919507497        0.27387869334576
H            1.99068324051436        1.08905676831222       -0.04491057911155
H            2.62062331885949        0.62220007606540       -2.42034274117367
H            2.65667714488397       -1.11144175322710       -2.05950315054366
H            4.38742609397750        2.09227143804848       -1.62449994570059
H            6.63840721770018        2.32876133823569       -0.72385511542815
H            8.32038089807818        2.29838046361451        0.95854561999833
H            8.94654216306174        1.81314181242637       -0.64376321639953
H            9.75013653290204        1.24387520397704        0.83981805944412
H            6.98873533762021       -3.85431726711574        1.16482670352983
H            5.32828695606120       -3.22390614123884        1.28003344766415
H            6.01903259826860       -3.65034718290835       -0.31400671710824
H            4.32101866074574       -2.01712389065470       -0.48787523536562
H            0.06662633749554       -1.37363835349663       -2.43372698149709
H           -1.11346342029754       -1.36356310864411       -1.12718153809130
H            0.50854117107249       -2.01410369660147       -0.84447477489922
H           -4.88587553915367        2.95915170245682        0.22462313116086
H           -3.72454687688657        3.10398812565705        3.03412977272611
H           -4.84294529603283        1.85426326776569        2.46966734213918
H           -5.36150114674316        3.53691270769331        2.54301391541552
H           -2.67723506664650        4.73520515093189        1.33792354451250
H           -3.38665158316337        4.83071599702929       -0.28461422410640
H           -4.35436554636664        5.22728050865195        1.12425740078629
H           -0.63515184119396        2.86309951866667        2.76135087296049

          :  Hamiltonian                  GFN2-xTB          :
         :: total energy            -101.989204027737 Eh    ::
         :: gradient norm              0.003209622475 Eh/a0 ::
         :: HOMO-LUMO gap              1.757276182825 eV    ::
         :: SCC energy              -100.763271057314 Eh    ::
         :: -> dispersion             -0.072538464324 Eh    ::
         :: repulsion energy           1.588797037236 Eh    ::

    * Orbital Energies and Occupations

         #    Occupation            Energy/Eh            Energy/eV
      -------------------------------------------------------------
         1        2.0000           -0.8125862             -22.1116
       ...           ...                  ...                  ...
        78        1.9978           -0.5284474             -14.3798
        79        1.9978           -0.5280620             -14.3693
        80        1.9971           -0.5240972             -14.2614
        81        1.9967           -0.5217259             -14.1969
        82        1.9936           -0.5114412             -13.9170
        83        1.9933           -0.5105053             -13.8916
        84        1.9932           -0.5102579             -13.8848
        85        1.9926           -0.5090620             -13.8523
        86        1.9761           -0.4903440             -13.3429
        87        1.9601           -0.4820668             -13.1177
        88        1.9222           -0.4711873             -12.8217
        89        1.8470           -0.4598514             -12.5132
        90        1.8290           -0.4579348             -12.4610 (HOMO)
        91        0.3066           -0.3933561             -10.7038 (LUMO)
        92        0.1883           -0.3845644             -10.4645
        93        0.0111           -0.3382913              -9.2054
        94        0.0052           -0.3263159              -8.8795
        95        0.0025           -0.3145196              -8.5585
        96        0.0021           -0.3119901              -8.4897
        97        0.0001           -0.2698016              -7.3417
        98        0.0000           -0.2250266              -6.1233
        99        0.0000           -0.1896060              -5.1594
       100                         -0.1314612              -3.5772
       101                         -0.0673028              -1.8314
       ...                                ...                  ...
       171                          1.5325448              41.7027
      -------------------------------------------------------------
                  HL-Gap            0.0645787 Eh            1.7573 eV

     #   Z          covCN         q      C6AA      α(0)
     1   7 N        1.774    -0.270    27.838     7.813
     2   6 C        2.825     0.102    25.737     8.313
     3   6 C        3.907     0.011    20.340     6.410
     4   6 C        2.906    -0.033    28.824     8.803
     5   6 C        2.894    -0.077    29.930     8.970
     6   6 C        2.831     0.213    23.507     7.945
     7   8 O        0.857    -0.425    22.180     6.314
     8   6 C        2.848    -0.059    29.465     8.896
     9   6 C        2.839     0.114    25.484     8.273
    10   8 O        1.706    -0.242    18.014     5.730
    11   6 C        3.642     0.027    20.465     6.504
    12   6 C        2.894    -0.064    29.584     8.918
    13   6 C        2.891    -0.030    28.748     8.791
    14   6 C        3.814    -0.065    21.732     6.635
    15   6 C        3.803    -0.083    22.077     6.689
    16   6 C        2.846     0.022    27.512     8.596
    17   7 N        2.729     0.034    20.657     6.750
    18   6 C        3.759    -0.019    20.963     6.527
    19   6 C        3.808    -0.071    21.854     6.655
    20   6 C        2.969     0.001    28.010     8.681
    21   6 C        2.922    -0.048    29.193     8.860
    22   6 C        2.914    -0.067    29.668     8.932
    23   6 C        2.865     0.134    25.066     8.207
    24   8 O        1.706    -0.220    17.649     5.672
    25   6 C        3.645     0.024    20.500     6.507
    26   6 C        2.863     0.134    25.074     8.208
    27   8 O        1.706    -0.223    17.696     5.680
    28   6 C        3.645     0.026    20.465     6.502
    29   6 C        2.919    -0.080    29.991     8.981
    30   6 C        3.702    -0.089    22.360     6.761
    31   6 C        3.854    -0.007    20.675     6.467
    32   6 C        3.756    -0.117    22.789     6.807
    33   6 C        3.755    -0.121    22.865     6.818
    34   1 H        0.926     0.049     2.334     2.389
    35   1 H        0.926     0.065     2.139     2.287
    36   1 H        0.931     0.113     1.672     2.022
    37   1 H        0.926     0.068     2.102     2.267
    38   1 H        0.924     0.054     2.267     2.354
    39   1 H        0.925     0.080     1.977     2.199
    40   1 H        0.924     0.054     2.267     2.354
    41   1 H        0.925     0.056     2.250     2.346
    42   1 H        0.925     0.042     2.418     2.432
    43   1 H        0.925     0.065     2.139     2.287
    44   1 H        0.924     0.055     2.264     2.353
    45   1 H        0.924     0.116     1.644     2.005
    46   1 H        0.924     0.090     1.875     2.141
    47   1 H        0.923     0.006     2.952     2.687
    48   1 H        0.925     0.073     2.050     2.239
    49   1 H        0.924     0.071     2.076     2.253
    50   1 H        0.924     0.067     2.124     2.279
    51   1 H        0.924     0.056     2.243     2.342
    52   1 H        0.925     0.060     2.195     2.317
    53   1 H        0.926     0.047     2.352     2.398
    54   1 H        0.926     0.060     2.202     2.320
    55   1 H        0.924     0.055     2.254     2.348
    56   1 H        0.924     0.057     2.235     2.338
    57   1 H        0.925     0.083     1.946     2.181
    58   1 H        0.925     0.083     1.951     2.184
    59   1 H        0.924     0.049     2.328     2.386
    60   1 H        0.924     0.054     2.273     2.358
    61   1 H        0.926     0.048     2.339     2.392
    62   1 H        0.924     0.084     1.936     2.176
    63   1 H        0.925     0.123     1.586     1.969
    64   1 H        0.925     0.078     2.005     2.214
    65   1 H        0.924     0.040     2.455     2.450
    66   1 H        0.925     0.064     2.155     2.296
    67   1 H        0.925     0.034     2.524     2.484
    68   1 H        0.925     0.052     2.298     2.371
    69   1 H        0.925     0.066     2.132     2.284
    70   1 H        0.925     0.038     2.481     2.463
    71   1 H        0.925     0.056     2.247     2.344
    72   1 H        0.860     0.155     1.368     1.832

Wiberg/Mayer (AO) data.
largest (>0.10) Wiberg bond orders for each atom

     #   Z sym  total        # sym  WBO       # sym  WBO       # sym  WBO
 ---------------------------------------------------------------------------
     1   7 N    3.025 --     2 C    1.952    72 H    0.942
     2   6 C    3.936 --     1 N    1.952     3 C    0.995    47 H    0.914
     3   6 C    3.973 --     4 C    0.996     2 C    0.995    14 C    0.946
                            31 C    0.935
     4   6 C    3.890 --    13 C    1.760     3 C    0.996    34 H    0.961
     5   6 C    3.956 --     8 C    1.838     6 C    1.069    36 H    0.970
     6   6 C    3.841 --     7 O    1.654     5 C    1.069     9 C    1.013
     7   8 O    1.914 --     6 C    1.654
     8   6 C    3.887 --     5 C    1.838    37 H    0.976    35 H    0.974
     9   6 C    3.856 --    12 C    1.572    10 O    1.094     6 C    1.013
    10   8 O    2.242 --     9 C    1.094    11 C    0.975
    11   6 C    3.930 --    39 H    0.976    10 O    0.975    38 H    0.973
                            40 H    0.971
    12   6 C    3.878 --     9 C    1.572    13 C    1.159    41 H    0.950
    13   6 C    3.956 --     4 C    1.760    12 C    1.159    42 H    0.954
    14   6 C    3.978 --    15 C    0.991    44 H    0.971    43 H    0.969
                             3 C    0.946
    15   6 C    3.977 --    16 C    1.070    14 C    0.991    45 H    0.926
                            46 H    0.915
    16   6 C    3.670 --    17 N    1.470    15 C    1.070    48 H    0.954
    17   7 N    3.544 --    16 C    1.470    30 C    0.994    18 C    0.986
    18   6 C    3.955 --    17 N    0.986    50 H    0.969    19 C    0.968
                            49 H    0.961
    19   6 C    3.979 --    20 C    1.007    51 H    0.973    52 H    0.970
                            18 C    0.968
    20   6 C    3.941 --    21 C    1.409    29 C    1.380    19 C    1.007
    21   6 C    3.947 --    22 C    1.417    20 C    1.409    53 H    0.968
    22   6 C    3.957 --    21 C    1.417    23 C    1.382    54 H    0.963
    23   6 C    3.892 --    22 C    1.382    26 C    1.216    24 O    1.113
    24   8 O    2.255 --    23 C    1.113    25 C    0.975
    25   6 C    3.927 --    57 H    0.977    24 O    0.975    56 H    0.972
                            55 H    0.972
    26   6 C    3.895 --    29 C    1.394    23 C    1.216    27 O    1.106
    27   8 O    2.254 --    26 C    1.106    28 C    0.978
    28   6 C    3.931 --    27 O    0.978    58 H    0.977    59 H    0.973
                            60 H    0.973
    29   6 C    3.957 --    26 C    1.394    20 C    1.380    61 H    0.962
    30   6 C    3.939 --    17 N    0.994    64 H    0.976    62 H    0.959
                            63 H    0.943
    31   6 C    3.966 --    32 C    1.008    33 C    1.007    65 H    0.961
                             3 C    0.935
    32   6 C    3.979 --    31 C    1.008    67 H    0.981    68 H    0.981
                            66 H    0.976
    33   6 C    3.977 --    31 C    1.007    70 H    0.982    71 H    0.978
                            69 H    0.974
    34   1 H    0.996 --     4 C    0.961
    35   1 H    0.992 --     8 C    0.974
    36   1 H    0.986 --     5 C    0.970
    37   1 H    0.994 --     8 C    0.976
    38   1 H    0.993 --    11 C    0.973
    39   1 H    0.992 --    11 C    0.976
    40   1 H    0.991 --    11 C    0.971
    41   1 H    0.991 --    12 C    0.950
    42   1 H    0.995 --    13 C    0.954
    43   1 H    0.994 --    14 C    0.969
    44   1 H    0.995 --    14 C    0.971
    45   1 H    0.982 --    15 C    0.926
    46   1 H    0.970 --    15 C    0.915
    47   1 H    0.984 --     2 C    0.914
    48   1 H    0.994 --    16 C    0.954
    49   1 H    0.990 --    18 C    0.961
    50   1 H    0.995 --    18 C    0.969
    51   1 H    0.996 --    19 C    0.973
    52   1 H    0.995 --    19 C    0.970
    53   1 H    0.997 --    21 C    0.968
    54   1 H    0.995 --    22 C    0.963
    55   1 H    0.991 --    25 C    0.972
    56   1 H    0.991 --    25 C    0.972
    57   1 H    0.992 --    25 C    0.977
    58   1 H    0.992 --    28 C    0.977
    59   1 H    0.993 --    28 C    0.973
    60   1 H    0.992 --    28 C    0.973
    61   1 H    0.996 --    29 C    0.962
    62   1 H    0.983 --    30 C    0.959
    63   1 H    0.981 --    30 C    0.943
    64   1 H    0.993 --    30 C    0.976
    65   1 H    0.991 --    31 C    0.961
    66   1 H    0.991 --    32 C    0.976
    67   1 H    0.996 --    32 C    0.981
    68   1 H    0.994 --    32 C    0.981
    69   1 H    0.991 --    33 C    0.974
    70   1 H    0.996 --    33 C    0.982
    71   1 H    0.992 --    33 C    0.978
    72   1 H    0.970 --     1 N    0.942
 ---------------------------------------------------------------------------

molecular dipole:
                 x           y           z       tot (Debye)
 q only:        0.607       0.043      -0.518
   full:        0.636      -0.281      -0.477       2.142

           -------------------------------------------------
          | TOTAL ENERGY             -101.989204027737 Eh   |
          | GRADIENT NORM               0.003209622475 Eh/α |
          | HOMO-LUMO GAP               1.757276182825 eV   |
           -------------------------------------------------

 * finished run on 2024/04/06 at 11:15:58.811
