   * xtb version 6.6.1 (8d0f1dd) compiled by 'conda@1efc2f54142f' on 2023-08-01
          program call               : xtb xtbopt.xyz --opt crude --input .xc2 --gfn2

   ID    Z sym.   atoms
    1    7 N      1, 17
    2    6 C      2-6, 8, 9, 11-16, 18-23, 25, 26, 28-33
    3    8 O      7, 10, 24, 27
    4    1 H      34-72
########################################################################
[WARNING] Please study the warnings concerning your input carefully
-1- readin_getIntValue: could not parse ''
########################################################################

          :  Hamiltonian                  GFN2-xTB          :
 * total energy  :   -99.1734194 Eh     change       -0.9521273E-12 Eh
 * total energy  :   -99.3308572 Eh     change       -0.1574378E+00 Eh
 * total energy  :   -99.3327934 Eh     change       -0.1936124E-02 Eh
 * total energy  :   -99.3332523 Eh     change       -0.4589279E-03 Eh
 * total energy  :   -99.3334529 Eh     change       -0.2006089E-03 Eh
   *** GEOMETRY OPTIMIZATION CONVERGED AFTER 5 ITERATIONS ***

 final structure:
================
72
 xtb: 6.6.1 (8d0f1dd)
N           -1.49585417352102        2.94585657224584        2.23046421027726
C           -1.73536325314290        2.07972777832495        1.36145061610382
C           -2.95527788341256        2.07886980761459        0.48593170787154
C           -3.60433758800791        0.72093906688417        0.50384505520730
C           -5.19503802288511       -2.50026572667206       -1.90213787978087
C           -4.19434638188460       -2.03680818640454       -0.94257647634371
O           -3.13030513401757       -1.50910921806151       -1.27833209927636
C           -5.07939637130583       -2.24909050781124       -3.21024264398406
C           -4.51296553303756       -2.27190747617732        0.48985571936234
O           -5.25528085664135       -3.39069996329285        0.65501442261880
C           -5.68644353767911       -3.76180944042556        1.94460079770461
C           -4.04737861026676       -1.50321796155869        1.51095157856718
C           -3.39237638597729       -0.22584314912391        1.42704136962241
C           -2.48029344187837        2.37520882467176       -0.96133922255616
C           -1.65951064587464        1.24137788969488       -1.59094920448930
C           -0.29050811745356        1.15288867806893       -1.04933998718914
N            0.42958469696945        0.05813935048927       -0.94643984636264
C            1.79939818417509        0.11518236646959       -0.48948407965293
C            2.80182352493060       -0.11295536590332       -1.63607553996281
C            4.20449193767306        0.02393077725512       -1.11304610216293
C            4.86653415429014        1.23951913073279       -1.16888434816157
C            6.14911792283696        1.37315992176163       -0.66016310430876
C            6.79382758881647        0.29171133023748       -0.07659112731759
O            8.03304801016373        0.30480132211505        0.44582599423555
C            8.79158082056114        1.49120375444624        0.38970232833175
C            6.11885960826578       -0.95946352437521       -0.00778225218150
O            6.81559494126507       -1.95417274651593        0.57502491509003
C            6.24211750666990       -3.23633314365464        0.66963497430967
C            4.83773652802637       -1.06877844622281       -0.52514917236735
C           -0.04553184587524       -1.23745137229467       -1.36589467099713
C           -4.03713372485433        3.12211103381235        0.90114090618312
C           -4.52161802516676        2.88419781663545        2.32933788653253
C           -3.57356696016529        4.56886154561173        0.75443611269923
H           -4.33429304237657        0.55752617501321       -0.27636074314164
H           -5.81634319211859       -2.57596467836222       -3.92050825861757
H           -6.02919520243245       -3.04203474371646       -1.49996384601480
H           -4.23313504332779       -1.69904406732142       -3.59514591962939
H           -6.24222371775041       -2.95354374339994        2.42831639591099
H           -6.34061619258890       -4.61928291909580        1.79837368069447
H           -4.84332103329605       -4.05720410071099        2.57612555487588
H           -4.18399422270055       -1.86273596494975        2.52222083899122
H           -2.73439115925315       -0.00759502808141        2.26051922748101
H           -3.36828783777104        2.53236438321131       -1.57451830391702
H           -1.89801678366788        3.29728273964436       -0.96601453220488
H           -2.19694626598754        0.29652224920263       -1.49407593008641
H           -1.57857409847791        1.44860724827448       -2.66617997563738
H           -1.05332233304221        1.24431491849208        1.12497292102025
H            0.19724536680752        2.07818139964356       -0.77245234585332
H            1.94993442286061       -0.65203501111044        0.27581452151288
H            1.99416649792446        1.09064291215695       -0.03879700595240
H            2.62128635051601        0.62687996430188       -2.41749672189794
H            2.65677885601669       -1.10765541543687       -2.05844039598898
H            4.38948607757963        2.09429009667262       -1.62364512491712
H            6.64192935378772        2.32912026182827       -0.72612380994605
H            8.31668936746041        2.29746013463410        0.95704656540250
H            8.95144840120683        1.81519371418892       -0.64291928810144
H            9.74976013881016        1.24657770346084        0.84397091373297
H            6.99140734107660       -3.85588969961870        1.15846618565167
H            5.33136715242903       -3.22487103640341        1.27697465235789
H            6.01920439401300       -3.65040433269470       -0.31851664135415
H            4.32185603376831       -2.01556786256437       -0.48851808128815
H            0.07099664762049       -1.35870646795148       -2.44483916388366
H           -1.10094203152466       -1.37017450591491       -1.12823803833261
H            0.52782237199134       -2.01243770276529       -0.86214387652651
H           -4.88592799843388        2.96301659033336        0.22460903861760
H           -3.72422264432548        3.09832484552188        3.03462340070710
H           -4.85091998861756        1.85708653746032        2.46695780171513
H           -5.35880816855607        3.54260058257981        2.54559175780056
H           -2.67445146387914        4.73469155619207        1.33976212970097
H           -3.38584537901510        4.83348918560569       -0.28245299078786
H           -4.35143299509456        5.22967687125066        1.12841711640965
H           -0.63084131424608        2.86565599439262        2.75602229646870

          :  Hamiltonian                  GFN2-xTB          :
         :: total energy             -99.333452903490 Eh    ::
         :: gradient norm              0.008647746235 Eh/a0 ::
         :: HOMO-LUMO gap              1.756948938706 eV    ::
         :: SCC energy              -100.732786290694 Eh    ::
         :: -> dispersion             -0.072559854232 Eh    ::
         :: repulsion energy           1.398284977173 Eh    ::

    * Orbital Energies and Occupations

         #    Occupation            Energy/Eh            Energy/eV
      -------------------------------------------------------------
         1        2.0000           -0.8123679             -22.1057
       ...           ...                  ...                  ...
        78        1.9978           -0.5281689             -14.3722
        79        1.9978           -0.5278967             -14.3648
        80        1.9970           -0.5234282             -14.2432
        81        1.9967           -0.5216490             -14.1948
        82        1.9936           -0.5112974             -13.9131
        83        1.9932           -0.5102060             -13.8834
        84        1.9929           -0.5096646             -13.8687
        85        1.9923           -0.5082330             -13.8297
        86        1.9762           -0.4902675             -13.3409
        87        1.9617           -0.4826325             -13.1331
        88        1.9221           -0.4710642             -12.8183
        89        1.8459           -0.4596286             -12.5071
        90        1.8290           -0.4578363             -12.4584 (HOMO)
        91        0.3068           -0.3932696             -10.7014 (LUMO)
        92        0.1890           -0.3845298             -10.4636
        93        0.0111           -0.3382170              -9.2034
        94        0.0051           -0.3257730              -8.8647
        95        0.0025           -0.3144175              -8.5557
        96        0.0021           -0.3118800              -8.4867
        97        0.0001           -0.2668954              -7.2626
        98        0.0000           -0.2230661              -6.0699
        99        0.0000           -0.1894842              -5.1561
       100                         -0.1308214              -3.5598
       101                         -0.0674509              -1.8354
       ...                                ...                  ...
       171                          0.5997504              16.3200
      -------------------------------------------------------------
                  HL-Gap            0.0645667 Eh            1.7569 eV

     #   Z          covCN         q      C6AA      α(0)
     1   7 N        1.774    -0.271    27.845     7.814
     2   6 C        2.825     0.102    25.738     8.313
     3   6 C        3.907     0.011    20.339     6.410
     4   6 C        2.906    -0.033    28.823     8.803
     5   6 C        2.891    -0.049    29.213     8.862
     6   6 C        2.826     0.217    23.421     7.930
     7   8 O        0.857    -0.427    22.237     6.322
     8   6 C        2.842    -0.057    29.396     8.886
     9   6 C        2.839     0.116    25.444     8.266
    10   8 O        1.706    -0.241    17.996     5.728
    11   6 C        3.642     0.027    20.467     6.505
    12   6 C        2.894    -0.064    29.584     8.918
    13   6 C        2.891    -0.030    28.738     8.789
    14   6 C        3.814    -0.065    21.730     6.635
    15   6 C        3.803    -0.082    22.069     6.688
    16   6 C        2.846     0.022    27.510     8.596
    17   7 N        2.729     0.035    20.643     6.748
    18   6 C        3.760    -0.019    20.963     6.527
    19   6 C        3.808    -0.071    21.853     6.655
    20   6 C        2.970     0.001    28.009     8.681
    21   6 C        2.922    -0.048    29.193     8.860
    22   6 C        2.914    -0.067    29.669     8.932
    23   6 C        2.865     0.134    25.066     8.207
    24   8 O        1.706    -0.220    17.648     5.672
    25   6 C        3.645     0.024    20.500     6.507
    26   6 C        2.863     0.134    25.074     8.208
    27   8 O        1.706    -0.223    17.697     5.680
    28   6 C        3.645     0.026    20.465     6.502
    29   6 C        2.919    -0.080    29.991     8.981
    30   6 C        3.702    -0.090    22.374     6.764
    31   6 C        3.854    -0.007    20.674     6.467
    32   6 C        3.756    -0.117    22.786     6.806
    33   6 C        3.755    -0.121    22.866     6.818
    34   1 H        0.926     0.048     2.345     2.395
    35   1 H        0.926     0.068     2.110     2.271
    36   1 H        0.926     0.070     2.087     2.259
    37   1 H        0.926     0.071     2.078     2.254
    38   1 H        0.924     0.055     2.261     2.352
    39   1 H        0.925     0.080     1.974     2.197
    40   1 H        0.924     0.055     2.258     2.350
    41   1 H        0.925     0.056     2.247     2.344
    42   1 H        0.925     0.043     2.411     2.428
    43   1 H        0.924     0.065     2.143     2.290
    44   1 H        0.924     0.055     2.263     2.353
    45   1 H        0.924     0.116     1.644     2.005
    46   1 H        0.923     0.090     1.880     2.144
    47   1 H        0.923     0.007     2.948     2.685
    48   1 H        0.925     0.073     2.051     2.239
    49   1 H        0.924     0.071     2.075     2.253
    50   1 H        0.924     0.066     2.125     2.280
    51   1 H        0.924     0.056     2.244     2.343
    52   1 H        0.924     0.060     2.195     2.317
    53   1 H        0.926     0.047     2.352     2.398
    54   1 H        0.926     0.060     2.202     2.320
    55   1 H        0.924     0.055     2.255     2.348
    56   1 H        0.924     0.057     2.235     2.338
    57   1 H        0.925     0.083     1.946     2.181
    58   1 H        0.925     0.083     1.951     2.184
    59   1 H        0.924     0.049     2.328     2.386
    60   1 H        0.924     0.054     2.273     2.358
    61   1 H        0.926     0.048     2.339     2.392
    62   1 H        0.924     0.084     1.941     2.179
    63   1 H        0.925     0.125     1.571     1.960
    64   1 H        0.925     0.077     2.007     2.215
    65   1 H        0.924     0.039     2.456     2.451
    66   1 H        0.925     0.063     2.161     2.299
    67   1 H        0.925     0.034     2.525     2.485
    68   1 H        0.925     0.052     2.299     2.371
    69   1 H        0.925     0.066     2.128     2.281
    70   1 H        0.925     0.038     2.481     2.463
    71   1 H        0.925     0.056     2.248     2.345
    72   1 H        0.860     0.155     1.369     1.833

Wiberg/Mayer (AO) data.
largest (>0.10) Wiberg bond orders for each atom

     #   Z sym  total        # sym  WBO       # sym  WBO       # sym  WBO
 ---------------------------------------------------------------------------
     1   7 N    3.025 --     2 C    1.952    72 H    0.942
     2   6 C    3.936 --     1 N    1.952     3 C    0.995    47 H    0.914
     3   6 C    3.973 --     4 C    0.996     2 C    0.995    14 C    0.946
                            31 C    0.935
     4   6 C    3.890 --    13 C    1.760     3 C    0.996    34 H    0.961
     5   6 C    3.957 --     8 C    1.838     6 C    1.082    36 H    0.961
     6   6 C    3.842 --     7 O    1.643     5 C    1.082     9 C    1.013
     7   8 O    1.907 --     6 C    1.643
     8   6 C    3.887 --     5 C    1.838    35 H    0.974    37 H    0.971
     9   6 C    3.857 --    12 C    1.573    10 O    1.096     6 C    1.013
    10   8 O    2.244 --     9 C    1.096    11 C    0.974
    11   6 C    3.930 --    39 H    0.976    10 O    0.974    38 H    0.973
                            40 H    0.971
    12   6 C    3.877 --     9 C    1.573    13 C    1.158    41 H    0.950
    13   6 C    3.956 --     4 C    1.760    12 C    1.158    42 H    0.954
    14   6 C    3.978 --    15 C    0.992    44 H    0.971    43 H    0.969
                             3 C    0.946
    15   6 C    3.977 --    16 C    1.070    14 C    0.992    45 H    0.926
                            46 H    0.915
    16   6 C    3.671 --    17 N    1.472    15 C    1.070    48 H    0.954
    17   7 N    3.545 --    16 C    1.472    30 C    0.994    18 C    0.986
    18   6 C    3.955 --    17 N    0.986    50 H    0.969    19 C    0.968
                            49 H    0.961
    19   6 C    3.979 --    20 C    1.008    51 H    0.973    52 H    0.970
                            18 C    0.968
    20   6 C    3.941 --    21 C    1.409    29 C    1.380    19 C    1.008
    21   6 C    3.947 --    22 C    1.417    20 C    1.409    53 H    0.968
    22   6 C    3.957 --    21 C    1.417    23 C    1.382    54 H    0.963
    23   6 C    3.892 --    22 C    1.382    26 C    1.216    24 O    1.113
    24   8 O    2.255 --    23 C    1.113    25 C    0.975
    25   6 C    3.927 --    57 H    0.977    24 O    0.975    56 H    0.972
                            55 H    0.972
    26   6 C    3.895 --    29 C    1.395    23 C    1.216    27 O    1.106
    27   8 O    2.254 --    26 C    1.106    28 C    0.978
    28   6 C    3.931 --    27 O    0.978    58 H    0.977    59 H    0.973
                            60 H    0.973
    29   6 C    3.957 --    26 C    1.395    20 C    1.380    61 H    0.962
    30   6 C    3.939 --    17 N    0.994    64 H    0.977    62 H    0.959
                            63 H    0.942
    31   6 C    3.966 --    32 C    1.008    33 C    1.007    65 H    0.961
                             3 C    0.935
    32   6 C    3.979 --    31 C    1.008    67 H    0.981    68 H    0.981
                            66 H    0.976
    33   6 C    3.977 --    31 C    1.007    70 H    0.982    71 H    0.978
                            69 H    0.974
    34   1 H    0.996 --     4 C    0.961
    35   1 H    0.992 --     8 C    0.974
    36   1 H    0.993 --     5 C    0.961
    37   1 H    0.994 --     8 C    0.971
    38   1 H    0.993 --    11 C    0.973
    39   1 H    0.992 --    11 C    0.976
    40   1 H    0.991 --    11 C    0.971
    41   1 H    0.992 --    12 C    0.950
    42   1 H    0.995 --    13 C    0.954
    43   1 H    0.994 --    14 C    0.969
    44   1 H    0.995 --    14 C    0.971
    45   1 H    0.982 --    15 C    0.926
    46   1 H    0.971 --    15 C    0.915
    47   1 H    0.984 --     2 C    0.914
    48   1 H    0.994 --    16 C    0.954
    49   1 H    0.990 --    18 C    0.961
    50   1 H    0.995 --    18 C    0.969
    51   1 H    0.996 --    19 C    0.973
    52   1 H    0.995 --    19 C    0.970
    53   1 H    0.997 --    21 C    0.968
    54   1 H    0.995 --    22 C    0.963
    55   1 H    0.991 --    25 C    0.972
    56   1 H    0.991 --    25 C    0.972
    57   1 H    0.992 --    25 C    0.977
    58   1 H    0.992 --    28 C    0.977
    59   1 H    0.993 --    28 C    0.973
    60   1 H    0.992 --    28 C    0.973
    61   1 H    0.996 --    29 C    0.962
    62   1 H    0.983 --    30 C    0.959
    63   1 H    0.981 --    30 C    0.942
    64   1 H    0.993 --    30 C    0.977
    65   1 H    0.991 --    31 C    0.961
    66   1 H    0.992 --    32 C    0.976
    67   1 H    0.996 --    32 C    0.981
    68   1 H    0.994 --    32 C    0.981
    69   1 H    0.991 --    33 C    0.974
    70   1 H    0.996 --    33 C    0.982
    71   1 H    0.992 --    33 C    0.978
    72   1 H    0.970 --     1 N    0.942
 ---------------------------------------------------------------------------

molecular dipole:
                 x           y           z       tot (Debye)
 q only:        0.606       0.063      -0.537
   full:        0.608      -0.273      -0.499       2.117

           -------------------------------------------------
          | TOTAL ENERGY              -99.333452903490 Eh   |
          | GRADIENT NORM               0.008647746235 Eh/α |
          | HOMO-LUMO GAP               1.756948938706 eV   |
           -------------------------------------------------

 * finished run on 2024/04/06 at 11:15:59.907
