   * xtb version 6.6.1 (8d0f1dd) compiled by 'conda@1efc2f54142f' on 2023-08-01
          program call               : xtb struc.xyz --opt loose --input .xc1 --gfn2

   ID    Z sym.   atoms
    1    6 C      1, 3, 5-7, 10, 11, 14
    2    7 N      2, 4, 9, 13
    3    8 O      8, 12
    4    1 H      15-25
constraining bond 5 20 to    5.7133300 Å, actual value:    4.6010795 Å

          :  Hamiltonian                  GFN2-xTB          :
 * total energy  :   -46.6656263 Eh     change       -0.6650680E-10 Eh
 * total energy  :   -54.4109542 Eh     change       -0.7745328E+01 Eh
 * total energy  :   -66.0154213 Eh     change       -0.1160447E+02 Eh
 * total energy  :   -81.6103162 Eh     change       -0.1559489E+02 Eh
 * total energy  :  -101.1105372 Eh     change       -0.1950022E+02 Eh
 * total energy  :  -124.1874323 Eh     change       -0.2307690E+02 Eh
 * total energy  :  -136.8330527 Eh     change       -0.1264562E+02 Eh
 * total energy  :  -135.7731870 Eh     change        0.1059866E+01 Eh
 * total energy  :  -138.9291028 Eh     change       -0.3155916E+01 Eh
 * total energy  :  -138.0347793 Eh     change        0.8943235E+00 Eh
 * total energy  :  -142.9459819 Eh     change       -0.2487258E-03 Eh
 * total energy  :  -142.9460444 Eh     change       -0.6250680E-04 Eh
 * total energy  :  -142.9461964 Eh     change       -0.1519721E-03 Eh
 * total energy  :  -142.9462550 Eh     change       -0.5864258E-04 Eh
 * total energy  :  -142.6540370 Eh     change        0.2922180E+00 Eh
 * total energy  :  -142.9462031 Eh     change       -0.2921661E+00 Eh
 * total energy  :  -142.9435054 Eh     change        0.2697694E-02 Eh
 * total energy  :  -142.9463378 Eh     change       -0.2832322E-02 Eh
 * total energy  :  -142.9463657 Eh     change       -0.2794298E-04 Eh
   *** GEOMETRY OPTIMIZATION CONVERGED AFTER 98 ITERATIONS ***

 final structure:
================
25
 xtb: 6.6.1 (8d0f1dd)
C            3.56174403945348        1.47067157000970        0.33865694211547
N            2.46930264494118        0.71548784087421       -0.23904774277820
C            2.70104515057192       -0.55014222147547       -0.73598354563088
N            1.74895786774351       -1.21502404279750       -1.22204354574338
C           -0.02935967269014        0.73010417421498       -0.79601914537065
C            1.22808070167512        1.21700727907174       -0.28701699570432
C            0.65079536293424        2.47433730444494        0.19637929765782
O            0.92750390283517        3.49564652642161        0.73005754712968
N           -0.64969095027010        1.98120457304056       -0.30036477082482
C           -1.83891946159374        2.44843210434216       -0.26954650563910
C           -2.43323573514652       -1.72675423312232        0.51022971703579
O           -2.18408891517574       -0.60350626294799        0.33380248920857
N           -2.50233843658129       -2.87481924700483        0.78043082736101
C           -3.11651955953306       -4.13556165298725        0.78688501758425
H            3.96739807478432        0.94500350016941        1.20468734940755
H            4.35712378084962        1.60010877928105       -0.39677049926413
H            3.21028513905795        2.44988846128739        0.65392059122342
H            3.74551117730275       -0.86202343820209       -0.64762383333676
H           -2.01562141436647        3.41249015335100        0.18188352183183
H           -0.13483083466829        0.52827283665322       -0.91903452860389
H           -2.65371815913164        1.87197669441629       -0.67815279667764
H           -2.80156808474930       -4.66119026759102        1.68956552685913
H           -2.79312973621604       -4.70702885706250       -0.08613216679559
H           -4.20489435391294       -4.04723464178730        0.78073214122861
H            1.95059898539627       -2.13910839050527       -1.57832327410441

          :  Hamiltonian                  GFN2-xTB          :
         :: total energy            -142.946365709350 Eh    ::
         :: gradient norm              0.002643698553 Eh/a0 ::
         :: HOMO-LUMO gap              2.079622640579 eV    ::
         :: SCC energy               -42.686593775864 Eh    ::
         :: -> dispersion             -0.018153254530 Eh    ::
         :: repulsion energy           5.984945485797 Eh    ::

    * Orbital Energies and Occupations

         #    Occupation            Energy/Eh            Energy/eV
      -------------------------------------------------------------
         1        2.0000           -0.8925684             -24.2880
       ...           ...                  ...                  ...
        25        1.9999           -0.6583417             -17.9144
        26        1.9999           -0.6432396             -17.5034
        27        1.9997           -0.6315622             -17.1857
        28        1.9996           -0.6284536             -17.1011
        29        1.9996           -0.6282592             -17.0958
        30        1.9994           -0.6221504             -16.9296
        31        1.9992           -0.6164743             -16.7751
        32        1.9985           -0.6063696             -16.5002
        33        1.9943           -0.5851719             -15.9233
        34        1.9405           -0.5475381             -14.8993
        35        1.9250           -0.5437389             -14.7959
        36        1.9106           -0.5408456             -14.7172
        37        1.8883           -0.5371356             -14.6162 (HOMO)
        38        0.2387           -0.4607109             -12.5366 (LUMO)
        39        0.1057           -0.4466624             -12.1543
        40        0.0010           -0.3720771             -10.1247
        41        0.0000           -0.3099677              -8.4346
        42        0.0000           -0.3062243              -8.3328
        43        0.0000           -0.2925677              -7.9612
        44                         -0.2099336              -5.7126
        45                         -0.1703675              -4.6359
        46                         -0.1587250              -4.3191
        47                         -0.0841986              -2.2912
        48                         -0.0798199              -2.1720
       ...                                ...                  ...
        67                         28.3433609             771.2621
      -------------------------------------------------------------
                  HL-Gap            0.0764247 Eh            2.0796 eV

     #   Z          covCN         q      C6AA      α(0)
     1   6 C        3.701    -0.083    22.255     6.746
     2   7 N        2.742     0.035    20.637     6.747
     3   6 C        2.786     0.128    25.172     8.218
     4   7 N        1.785    -0.277    28.000     7.837
     5   6 C        3.076    -0.072    29.717     8.938
     6   6 C        3.256     0.037    26.072     8.256
     7   6 C        3.002     0.267    22.491     7.779
     8   8 O        0.856    -0.262    19.105     5.860
     9   7 N        3.033     0.032    20.684     6.755
    10   6 C        2.766    -0.001    28.042     8.672
    11   6 C        1.769     0.311    24.246     7.961
    12   8 O        0.856    -0.292    19.647     5.943
    13   7 N        1.820    -0.125    24.477     7.331
    14   6 C        3.685    -0.035    21.398     6.623
    15   1 H        0.924     0.097     1.814     2.106
    16   1 H        0.924     0.098     1.804     2.100
    17   1 H        0.925     0.106     1.728     2.056
    18   1 H        0.924     0.067     2.122     2.278
    19   1 H        0.926     0.133     1.512     1.923
    20   1 H        0.985     0.212     1.038     1.592
    21   1 H        0.926     0.138     1.474     1.899
    22   1 H        0.924     0.104     1.751     2.069
    23   1 H        0.924     0.097     1.814     2.106
    24   1 H        0.924     0.092     1.857     2.131
    25   1 H        0.860     0.193     1.143     1.675

Wiberg/Mayer (AO) data.
largest (>0.10) Wiberg bond orders for each atom

     #   Z sym  total        # sym  WBO       # sym  WBO       # sym  WBO
 ---------------------------------------------------------------------------
     1   6 C    3.929 --     2 N    0.982    17 H    0.973    16 H    0.964
                            15 H    0.964
     2   7 N    3.605 --     6 C    1.260     3 C    1.126     1 C    0.982
     3   6 C    3.932 --     4 N    1.827     2 N    1.126    18 H    0.925
     4   7 N    2.948 --     3 C    1.827    25 H    0.931
     5   6 C    3.680 --     6 C    1.362     9 N    1.005    20 H    0.941
     6   6 C    3.893 --     5 C    1.362     2 N    1.260     7 C    1.027
     7   6 C    3.837 --     8 O    1.850     6 C    1.027     9 N    0.885
     8   8 O    2.118 --     7 C    1.850     9 N    0.100
     9   7 N    3.687 --    10 C    1.653     5 C    1.005     7 C    0.885
                             8 O    0.100
    10   6 C    3.794 --     9 N    1.653    19 H    0.951    21 H    0.950
    11   6 C    3.936 --    13 N    2.021    12 O    1.840
    12   8 O    2.231 --    11 C    1.840    13 N    0.346
    13   7 N    3.395 --    11 C    2.021    14 C    1.027    12 O    0.346
    14   6 C    3.913 --    13 N    1.027    22 H    0.952    24 H    0.949
                            23 H    0.947
    15   1 H    0.983 --     1 C    0.964
    16   1 H    0.983 --     1 C    0.964
    17   1 H    0.988 --     1 C    0.973
    18   1 H    0.972 --     3 C    0.925
    19   1 H    0.982 --    10 C    0.951
    20   1 H    0.955 --     5 C    0.941
    21   1 H    0.980 --    10 C    0.950
    22   1 H    0.974 --    14 C    0.952
    23   1 H    0.972 --    14 C    0.947
    24   1 H    0.975 --    14 C    0.949
    25   1 H    0.957 --     4 N    0.931
 ---------------------------------------------------------------------------

molecular dipole:
                 x           y           z       tot (Debye)
 q only:        0.157      -0.643      -0.346
   full:        0.270      -0.833      -0.361       2.407

           -------------------------------------------------
          | TOTAL ENERGY             -142.946365709350 Eh   |
          | GRADIENT NORM               0.002643698553 Eh/α |
          | HOMO-LUMO GAP               2.079622640579 eV   |
           -------------------------------------------------

 * finished run on 2024/06/05 at 19:58:04.906
