   * xtb version 6.6.1 (8d0f1dd) compiled by 'conda@1efc2f54142f' on 2023-08-01
          program call               : xtb xtbopt.xyz --opt crude --input .xc2 --gfn2

   ID    Z sym.   atoms
    1    6 C      1, 3, 5-7, 10, 11, 14
    2    7 N      2, 4, 9, 13
    3    8 O      8, 12
    4    1 H      15-25

          :  Hamiltonian                  GFN2-xTB          :
 * total energy  :   -36.7015906 Eh     change       -0.2252420E-11 Eh
 * total energy  :   -42.0007558 Eh     change       -0.5299165E+01 Eh
 * total energy  :   -42.0725171 Eh     change       -0.7176125E-01 Eh
 * total energy  :   -42.0796277 Eh     change       -0.7110607E-02 Eh
 * total energy  :   -42.0813020 Eh     change       -0.1674340E-02 Eh
 * total energy  :   -42.0770082 Eh     change        0.4293849E-02 Eh
 * total energy  :   -42.0833649 Eh     change       -0.6356789E-02 Eh
 * total energy  :   -42.0845396 Eh     change       -0.1174608E-02 Eh
 * total energy  :   -42.0871228 Eh     change       -0.2583204E-02 Eh
 * total energy  :   -42.0895625 Eh     change       -0.2439763E-02 Eh
 * total energy  :   -42.0908170 Eh     change       -0.1254524E-02 Eh
 * total energy  :   -42.0910284 Eh     change       -0.2113228E-03 Eh
   *** GEOMETRY OPTIMIZATION CONVERGED AFTER 12 ITERATIONS ***

 final structure:
================
25
 xtb: 6.6.1 (8d0f1dd)
C            3.59302689888704        1.49529253497801        0.36248878577227
N            2.50834581231927        0.74936958153180       -0.24287562332880
C            2.75603674235594       -0.49889281690035       -0.76567633207856
N            1.82827643848833       -1.18000555091945       -1.27847181426417
C            0.03044734942292        0.88060895961917       -0.76957672126632
C            1.26942379016787        1.26069242360745       -0.27317027021269
C            0.67875912170138        2.49887422665137        0.26091281680348
O            0.92730330571431        3.49436305253928        0.84886309536092
N           -0.62595062121720        2.01434781944164       -0.28850385247300
C           -1.82494077461192        2.46178466009585       -0.26803686794541
C           -2.47767358374743       -1.74817071024195        0.51242004876220
O           -2.21956368194597       -0.62932695273432        0.31439731192918
N           -2.57054308959714       -2.89154841463960        0.78668134861056
C           -3.18259517748726       -4.15216637368579        0.83281491684119
H            3.99704133621582        0.94924696998034        1.21642035331990
H            4.39179209983566        1.65009440410499       -0.36431753554964
H            3.23475779716264        2.46361324186387        0.70251416387736
H            3.80448934765423       -0.79769026081633       -0.67363222862515
H           -2.01978413454289        3.40629660607036        0.21541216497113
H           -0.38605458908272        0.04628440750187       -1.29241833530096
H           -2.62991426669720        1.89837605220560       -0.71163860627052
H           -2.84540444438863       -4.66160198430336        1.73657058846264
H           -2.88066535897157       -4.73800278048897       -0.03812764701246
H           -4.27061847808472       -4.06292005661953        0.85168329840644
H            2.07443967395959       -2.09068049674521       -1.64356144062060

          :  Hamiltonian                  GFN2-xTB          :
         :: total energy             -42.091028368227 Eh    ::
         :: gradient norm              0.004244386785 Eh/a0 ::
         :: HOMO-LUMO gap              2.194443091662 eV    ::
         :: SCC energy               -42.696727407400 Eh    ::
         :: -> dispersion             -0.017871193670 Eh    ::
         :: repulsion energy           0.605633721509 Eh    ::

    * Orbital Energies and Occupations

         #    Occupation            Energy/Eh            Energy/eV
      -------------------------------------------------------------
         1        2.0000           -0.8958137             -24.3763
       ...           ...                  ...                  ...
        25        2.0000           -0.6560635             -17.8524
        26        1.9999           -0.6429206             -17.4948
        27        1.9997           -0.6297437             -17.1362
        28        1.9997           -0.6265301             -17.0488
        29        1.9997           -0.6259646             -17.0334
        30        1.9996           -0.6236897             -16.9715
        31        1.9995           -0.6203207             -16.8798
        32        1.9988           -0.6046847             -16.4543
        33        1.9961           -0.5865019             -15.9595
        34        1.9443           -0.5440476             -14.8043
        35        1.9323           -0.5408656             -14.7177
        36        1.9239           -0.5389459             -14.6655
        37        1.8965           -0.5338543             -14.5269 (HOMO)
        38        0.2022           -0.4532100             -12.3325 (LUMO)
        39        0.1069           -0.4423003             -12.0356
        40        0.0011           -0.3687094             -10.0331
        41        0.0000           -0.3048659              -8.2958
        42        0.0000           -0.2965834              -8.0704
        43        0.0000           -0.2897941              -7.8857
        44                         -0.1920385              -5.2256
        45                         -0.1576973              -4.2912
        46                         -0.1227706              -3.3408
        47                         -0.0855515              -2.3280
        48                         -0.0836797              -2.2770
       ...                                ...                  ...
        67                          1.2422692              33.8039
      -------------------------------------------------------------
                  HL-Gap            0.0806443 Eh            2.1944 eV

     #   Z          covCN         q      C6AA      α(0)
     1   6 C        3.703    -0.082    22.228     6.741
     2   7 N        2.740     0.033    20.673     6.753
     3   6 C        2.783     0.128    25.179     8.219
     4   7 N        1.783    -0.288    28.290     7.877
     5   6 C        3.260    -0.000    26.866     8.375
     6   6 C        3.189     0.049    26.433     8.387
     7   6 C        3.178     0.274    22.052     7.667
     8   8 O        0.856    -0.251    18.926     5.833
     9   7 N        3.002     0.068    20.057     6.652
    10   6 C        2.768    -0.013    28.329     8.717
    11   6 C        1.769     0.309    24.271     7.965
    12   8 O        0.856    -0.304    19.849     5.973
    13   7 N        1.820    -0.128    24.539     7.340
    14   6 C        3.685    -0.034    21.382     6.620
    15   1 H        0.924     0.095     1.827     2.114
    16   1 H        0.924     0.097     1.817     2.108
    17   1 H        0.925     0.104     1.745     2.066
    18   1 H        0.924     0.064     2.148     2.292
    19   1 H        0.926     0.131     1.526     1.932
    20   1 H        0.927     0.134     1.505     1.918
    21   1 H        0.926     0.134     1.501     1.916
    22   1 H        0.924     0.102     1.770     2.080
    23   1 H        0.924     0.095     1.834     2.118
    24   1 H        0.924     0.091     1.871     2.139
    25   1 H        0.860     0.192     1.150     1.680

Wiberg/Mayer (AO) data.
largest (>0.10) Wiberg bond orders for each atom

     #   Z sym  total        # sym  WBO       # sym  WBO       # sym  WBO
 ---------------------------------------------------------------------------
     1   6 C    3.930 --     2 N    0.982    17 H    0.974    16 H    0.966
                            15 H    0.965
     2   7 N    3.600 --     6 C    1.244     3 C    1.131     1 C    0.982
     3   6 C    3.932 --     4 N    1.821     2 N    1.131    18 H    0.926
     4   7 N    2.942 --     3 C    1.821    25 H    0.932
     5   6 C    3.785 --     6 C    1.391     9 N    1.084    20 H    0.951
     6   6 C    3.899 --     5 C    1.391     2 N    1.244     7 C    1.014
     7   6 C    3.840 --     8 O    1.874     6 C    1.014     9 N    0.852
     8   8 O    2.148 --     7 C    1.874     9 N    0.101
     9   7 N    3.704 --    10 C    1.624     5 C    1.084     7 C    0.852
                             8 O    0.101
    10   6 C    3.792 --     9 N    1.624    19 H    0.955    21 H    0.950
    11   6 C    3.939 --    13 N    2.033    12 O    1.830
    12   8 O    2.225 --    11 C    1.830    13 N    0.352
    13   7 N    3.412 --    11 C    2.033    14 C    1.026    12 O    0.352
    14   6 C    3.917 --    13 N    1.026    22 H    0.954    24 H    0.950
                            23 H    0.949
    15   1 H    0.983 --     1 C    0.965
    16   1 H    0.983 --     1 C    0.966
    17   1 H    0.989 --     1 C    0.974
    18   1 H    0.974 --     3 C    0.926
    19   1 H    0.982 --    10 C    0.955
    20   1 H    0.982 --     5 C    0.951
    21   1 H    0.981 --    10 C    0.950
    22   1 H    0.977 --    14 C    0.954
    23   1 H    0.975 --    14 C    0.949
    24   1 H    0.977 --    14 C    0.950
    25   1 H    0.958 --     4 N    0.932
 ---------------------------------------------------------------------------

molecular dipole:
                 x           y           z       tot (Debye)
 q only:        0.224      -0.416      -0.374
   full:        0.294      -0.722      -0.456       2.295

           -------------------------------------------------
          | TOTAL ENERGY              -42.091028368227 Eh   |
          | GRADIENT NORM               0.004244386785 Eh/α |
          | HOMO-LUMO GAP               2.194443091662 eV   |
           -------------------------------------------------

 * finished run on 2024/06/05 at 19:58:05.272
