   * xtb version 6.6.1 (8d0f1dd) compiled by 'conda@1efc2f54142f' on 2023-08-01
          program call               : xtb xtbopt.xyz --opt crude --input .xc2 --gfn2

   ID    Z sym.   atoms
    1    6 C      1, 3, 5-7, 10, 11, 14
    2    7 N      2, 4, 9, 13
    3    8 O      8, 12
    4    1 H      15-25

          :  Hamiltonian                  GFN2-xTB          :
 * total energy  :   -42.1428033 Eh     change       -0.5613288E-12 Eh
   *** GEOMETRY OPTIMIZATION CONVERGED AFTER 1 ITERATIONS ***

 final structure:
================
25
 xtb: 6.6.1 (8d0f1dd)
C            3.20012324225660        1.04088466328372       -0.33671881445844
N            2.32235215564241        0.04175918979256       -0.27396894653613
C            2.57424882952853       -1.28886570716579       -0.27626417413599
N            1.40322540896544       -1.98204225688529       -0.16552375901355
C            0.38500667160190       -1.08541882084039       -0.09229897210029
C            0.94271419467187        0.18643216832775       -0.16021286406652
C            0.13546628291775        1.37772229212453       -0.12793272264725
O            0.53628737679684        2.51839291146592       -0.19787079694608
N           -1.22699331578258        1.06703650302854       -0.01002268387345
C           -2.16389513479571        2.17723675846065        0.03061783995123
C           -1.80304090099458       -0.18773291188008        0.06559871031454
O           -2.99208511588941       -0.34066753315897        0.16214008922460
N           -0.93917687317027       -1.29988544641137        0.02395623850065
C           -1.50458683958543       -2.63099331288484        0.09580226681822
H            2.52471081947720        1.60015042046653        2.17734879191232
H            4.24041213727774        0.82027924833645       -0.50405636076076
H            2.83200373396863        2.05056611310541       -0.35307487396100
H            3.54382495296471       -1.73488338641106       -0.35183181235461
H           -1.59364333197885        3.10431377203914        0.00909938599520
H           -2.83705622539581        2.12979630186283       -0.82722818828862
H           -2.76661753214591        2.12231119443353        0.93833854113608
H           -1.12014723915975       -3.16267072374924        0.96691639797997
H           -1.28148974647072       -3.19145212442813       -0.81296820667033
H           -2.58510847392752       -2.52550325104214        0.19160343037156
H            1.33389643732692       -2.98852752027032       -0.14027689849137

          :  Hamiltonian                  GFN2-xTB          :
         :: total energy             -42.142803331878 Eh    ::
         :: gradient norm              0.005102014147 Eh/a0 ::
         :: HOMO-LUMO gap              0.646510366235 eV    ::
         :: SCC energy               -42.661007985778 Eh    ::
         :: -> dispersion             -0.023453973292 Eh    ::
         :: repulsion energy           0.518038428094 Eh    ::

    * Orbital Energies and Occupations

         #    Occupation            Energy/Eh            Energy/eV
      -------------------------------------------------------------
         1        2.0000           -0.9120111             -24.8171
       ...           ...                  ...                  ...
        25        1.9989           -0.6763757             -18.4051
        26        1.9987           -0.6729460             -18.3118
        27        1.9983           -0.6662957             -18.1308
        28        1.9950           -0.6410358             -17.4435
        29        1.9939           -0.6364994             -17.3200
        30        1.9930           -0.6330432             -17.2260
        31        1.9898           -0.6241779             -16.9847
        32        1.9816           -0.6100542             -16.6004
        33        1.9592           -0.5908234             -16.0771
        34        1.9141           -0.5726228             -15.5819
        35        1.9101           -0.5714733             -15.5506
        36        1.8908           -0.5666227             -15.4186
        37        1.3756           -0.5176582             -14.0862 (HOMO)
        38        0.8952           -0.4938994             -13.4397 (LUMO)
        39        0.0601           -0.4163809             -11.3303
        40        0.0387           -0.4056331             -11.0378
        41        0.0104           -0.3742203             -10.1831
        42        0.0004           -0.2935038              -7.9866
        43        0.0000           -0.2133345              -5.8051
        44        0.0000           -0.1891795              -5.1478
        45        0.0000           -0.1490548              -4.0560
        46        0.0000           -0.1228330              -3.3425
        47                         -0.0846551              -2.3036
        48                         -0.0542570              -1.4764
       ...                                ...                  ...
        67                          0.5375739              14.6281
      -------------------------------------------------------------
                  HL-Gap            0.0237588 Eh            0.6465 eV

     #   Z          covCN         q      C6AA      α(0)
     1   6 C        2.789    -0.065    29.603     8.912
     2   7 N        2.806     0.128    19.061     6.484
     3   6 C        3.033     0.024    27.437     8.592
     4   7 N        2.776    -0.059    22.378     7.026
     5   6 C        3.018     0.115    25.437     8.273
     6   6 C        3.105    -0.030    28.617     8.765
     7   6 C        2.764     0.271    22.426     7.755
     8   8 O        0.858    -0.341    20.536     6.076
     9   7 N        2.746    -0.074    22.676     7.072
    10   6 C        3.709    -0.062    21.838     6.679
    11   6 C        2.728     0.316    21.636     7.615
    12   8 O        0.860    -0.341    20.541     6.077
    13   7 N        2.738    -0.046    22.132     6.987
    14   6 C        3.697    -0.074    22.084     6.722
    15   1 H        0.000    -0.032     9.154     5.532
    16   1 H        0.926     0.112     1.676     2.024
    17   1 H        0.926     0.142     1.443     1.879
    18   1 H        0.927     0.123     1.588     1.971
    19   1 H        0.925     0.125     1.575     1.962
    20   1 H        0.924     0.111     1.684     2.030
    21   1 H        0.924     0.113     1.672     2.022
    22   1 H        0.924     0.091     1.865     2.135
    23   1 H        0.924     0.091     1.867     2.137
    24   1 H        0.925     0.132     1.517     1.926
    25   1 H        0.860     0.228     0.974     1.546

Wiberg/Mayer (AO) data.
largest (>0.10) Wiberg bond orders for each atom

     #   Z sym  total        # sym  WBO       # sym  WBO       # sym  WBO
 ---------------------------------------------------------------------------
     1   6 C    3.409 --     2 N    1.312    16 H    0.963    17 H    0.950
     2   7 N    3.738 --     1 C    1.312     3 C    1.241     6 C    1.091
     3   6 C    3.614 --     2 N    1.241     4 N    1.227    18 H    0.954
     4   7 N    3.517 --     3 C    1.227     5 C    1.199    25 H    0.920
     5   6 C    3.895 --     6 C    1.323    13 N    1.204     4 N    1.199
     6   6 C    3.804 --     5 C    1.323     7 C    1.097     2 N    1.091
     7   6 C    3.924 --     8 O    1.662     6 C    1.097     9 N    1.076
     8   8 O    1.958 --     7 C    1.662     9 N    0.123
     9   7 N    3.489 --    11 C    1.124     7 C    1.076    10 C    0.977
                            12 O    0.124     8 O    0.123
    10   6 C    3.868 --     9 N    0.977    19 H    0.955    21 H    0.947
                            20 H    0.946
    11   6 C    3.940 --    12 O    1.682     9 N    1.124    13 N    1.045
    12   8 O    1.997 --    11 C    1.682     9 N    0.124    13 N    0.111
    13   7 N    3.501 --     5 C    1.204    11 C    1.045    14 C    0.977
                            12 O    0.111
    14   6 C    3.905 --    13 N    0.977    22 H    0.963    23 H    0.963
                            24 H    0.958
    15   1 H    0.059
    16   1 H    0.983 --     1 C    0.963
    17   1 H    0.975 --     1 C    0.950
    18   1 H    0.983 --     3 C    0.954
    19   1 H    0.973 --    10 C    0.955
    20   1 H    0.964 --    10 C    0.946
    21   1 H    0.965 --    10 C    0.947
    22   1 H    0.980 --    14 C    0.963
    23   1 H    0.980 --    14 C    0.963
    24   1 H    0.978 --    14 C    0.958
    25   1 H    0.947 --     4 N    0.920
 ---------------------------------------------------------------------------

molecular dipole:
                 x           y           z       tot (Debye)
 q only:        1.738      -2.096      -0.423
   full:        1.991      -2.541      -0.439       8.280

           -------------------------------------------------
          | TOTAL ENERGY              -42.142803331878 Eh   |
          | GRADIENT NORM               0.005102014147 Eh/α |
          | HOMO-LUMO GAP               0.646510366235 eV   |
           -------------------------------------------------

 * finished run on 2024/06/05 at 19:58:55.416
