   * xtb version 6.6.1 (8d0f1dd) compiled by 'conda@1efc2f54142f' on 2023-08-01
          program call               : xtb struc.xyz --opt loose --input .xc1 --gfn2

   ID    Z sym.   atoms
    1    7 N      1, 17
    2    6 C      2-6, 8, 9, 11-16, 18-23, 25, 26, 28-33
    3    8 O      7, 10, 24, 27
    4    1 H      34-72
constraining bond 24 56 to    2.6333300 Å, actual value:    2.0766854 Å

          :  Hamiltonian                  GFN2-xTB          :
 * total energy  :   -99.4594562 Eh     change       -0.4035485E-08 Eh
 * total energy  :   -99.5634681 Eh     change       -0.1040119E+00 Eh
 * total energy  :   -99.7247872 Eh     change       -0.1613191E+00 Eh
 * total energy  :   -96.9831323 Eh     change        0.2741655E+01 Eh
 * total energy  :   -99.7885062 Eh     change       -0.2805374E+01 Eh
 * total energy  :   -99.8060192 Eh     change       -0.1751295E-01 Eh
 * total energy  :   -99.8095454 Eh     change       -0.3526260E-02 Eh
 * total energy  :   -99.8146073 Eh     change       -0.5061875E-02 Eh
 * total energy  :   -99.8187993 Eh     change       -0.4191990E-02 Eh
 * total energy  :   -99.8223134 Eh     change       -0.3514111E-02 Eh
 * total energy  :   -99.8440694 Eh     change       -0.2054834E-03 Eh
 * total energy  :   -99.8442264 Eh     change       -0.1570867E-03 Eh
 * total energy  :   -99.8444224 Eh     change       -0.1959152E-03 Eh
 * total energy  :   -99.8443423 Eh     change        0.8006155E-04 Eh
 * total energy  :   -99.8446276 Eh     change       -0.2852527E-03 Eh
 * total energy  :   -99.8446907 Eh     change       -0.6311846E-04 Eh
 * total energy  :   -99.8447522 Eh     change       -0.6153694E-04 Eh
 * total energy  :   -99.8448121 Eh     change       -0.5991038E-04 Eh
 * total energy  :   -99.8448405 Eh     change       -0.2837425E-04 Eh
   *** GEOMETRY OPTIMIZATION CONVERGED AFTER 34 ITERATIONS ***

 final structure:
================
72
 xtb: 6.6.1 (8d0f1dd)
N           -1.95224515564369        2.85888002458657        2.29979882773942
C           -1.86989854032785        2.15598647036357        1.26903176723207
C           -2.99228870729792        1.93734481266905        0.29236113949119
C           -3.45358171096341        0.48923131690728        0.36412361320664
C           -4.34964414195361       -0.00026819765398       -0.58894735248072
C           -4.81013694451058       -1.30477278130099       -0.54700376581875
O           -5.68357569324671       -1.85217796154491       -1.42201287113031
C           -6.27662970881621       -1.03339998415921       -2.40138490570945
C           -4.35533626348342       -2.17460291593977        0.47813924663686
O           -4.84777841012460       -3.43245861799172        0.43506649079287
C           -4.50960391278089       -4.33108434860840        1.46444839016513
C           -3.46969613214528       -1.68341278823138        1.42230986049838
C           -3.02756002304532       -0.36667712782496        1.36632881642119
C           -2.39997756893707        2.23458591694448       -1.11015720220180
C           -1.44940236209375        1.14949979655658       -1.64802909754320
C           -0.12109184936642        1.14434139505478       -0.99470951335616
N            0.54198794352671        0.05369143389732       -0.58945943978189
C            1.94895308357925        0.12982496612163       -0.28615610347620
C            2.81639161522216       -0.37827199471630       -1.45848537170323
C            4.26868492686941       -0.15368657485583       -1.15577208733185
C            4.89214336371774        1.02601527661722       -1.54824040658474
C            6.21514610998554        1.25847643629600       -1.21893905401397
C            6.91144071345131        0.30368166407498       -0.50059753024985
O            8.27197628934159        0.51948807368690       -0.10620601003204
C            8.37813886201156        1.55616187231027        0.98709054030005
C            6.31497948398397       -0.89821746473441       -0.09354774460585
O            7.10496993676537       -1.74788497184569        0.59410576365039
C            6.57705069137006       -2.98934886062384        1.00945745690960
C            4.98145526446057       -1.10716044021768       -0.43345333935693
C           -0.06782604878740       -1.25339024814776       -0.58264825828249
C           -4.22317734323853        2.85604789669113        0.54862724827282
C           -4.90273014291345        2.52634054220014        1.87561717496228
C           -3.88201160857257        4.34313478309490        0.49960916799439
H           -4.70223789714274        0.65555222925808       -1.36744488035680
H           -6.81849975615056       -0.19648851688071       -1.95038039337927
H           -6.97990715278953       -1.67398294757939       -2.92994435811353
H           -5.53550256957422       -0.65056530670537       -3.11096396876002
H           -4.82471578889109       -3.95722195743883        2.44328268281278
H           -5.04809603082529       -5.24949822192521        1.23899399874923
H           -3.43433951629567       -4.53748292312247        1.48134747539176
H           -3.12233129447812       -2.31483963186960        2.22398978811194
H           -2.36238727836338       -0.01216611815915        2.13852236502779
H           -3.22019419584919        2.34716285460436       -1.81858349337424
H           -1.86578799412425        3.18488925760472       -1.07139971273096
H           -1.93223606495496        0.17599331240656       -1.58652574196613
H           -1.29025541004519        1.37399890347181       -2.71184303409230
H           -0.94160757610504        1.65024585707326        0.93978058014747
H            0.43333135075636        2.07025302877301       -0.98374402411578
H            2.15976334547444       -0.46612983162173        0.60641392469354
H            2.21535650968410        1.16741459481287       -0.07440516436466
H            2.53453006834429        0.16695638430987       -2.36038454221408
H            2.62240725460446       -1.43914872032579       -1.61927135457756
H            4.34713253009850        1.76346264398405       -2.11475090997353
H            6.70383210505702        2.17704341819607       -1.50373368914250
H            7.74694505579367        1.24752488561562        1.80932765900870
H            8.71118503744426        0.78227316880443       -0.69607082521671
H            9.42906155686953        1.61689535444824        1.24371717600443
H            7.39178964948333       -3.49349825994469        1.52461703605782
H            5.74015783235500       -2.85516351255678        1.69994974430083
H            6.26020498234409       -3.59190763229658        0.15394076731665
H            4.49093394478077       -2.02155486015288       -0.14173076345876
H           -0.17514020162261       -1.65244346188479       -1.59445531999981
H           -1.05418851902163       -1.20894587300999       -0.11645944596754
H            0.55444325964497       -1.93341847000924       -0.00538295369133
H           -4.93835735036291        2.64733054013453       -0.25535508356124
H           -4.22996956233719        2.73731820507260        2.70020665116420
H           -5.19595220229475        1.48016393777200        1.91701442915016
H           -5.79489189774292        3.13669903201116        1.98912678059926
H           -3.14789531071510        4.58643412720428        1.26124531614688
H           -3.50157960207951        4.64029653858988       -0.47418891089355
H           -4.78063839983894        4.92186121108772        0.69654533100198
H           -1.11697333016336        2.95290888307319        2.86989625625480

          :  Hamiltonian                  GFN2-xTB          :
         :: total energy             -99.844840498494 Eh    ::
         :: gradient norm              0.002403070858 Eh/a0 ::
         :: HOMO-LUMO gap              0.985723132931 eV    ::
         :: SCC energy              -100.673044482129 Eh    ::
         :: -> dispersion             -0.075599629087 Eh    ::
         :: repulsion energy           1.439564849847 Eh    ::

    * Orbital Energies and Occupations

         #    Occupation            Energy/Eh            Energy/eV
      -------------------------------------------------------------
         1        2.0000           -0.8758633             -23.8335
       ...           ...                  ...                  ...
        78        1.9993           -0.5249160             -14.2837
        79        1.9989           -0.5174988             -14.0819
        80        1.9989           -0.5172585             -14.0753
        81        1.9988           -0.5160425             -14.0422
        82        1.9983           -0.5101440             -13.8817
        83        1.9973           -0.5029304             -13.6854
        84        1.9968           -0.5002054             -13.6113
        85        1.9961           -0.4973913             -13.5347
        86        1.9950           -0.4932151             -13.4211
        87        1.9865           -0.4774155             -12.9911
        88        1.9541           -0.4578284             -12.4581
        89        1.9109           -0.4469689             -12.1626
        90        1.5412           -0.4176107             -11.3638 (HOMO)
        91        0.5085           -0.3813860             -10.3780 (LUMO)
        92        0.0676           -0.3453264              -9.3968
        93        0.0274           -0.3307079              -8.9990
        94        0.0189           -0.3247522              -8.8370
        95        0.0049           -0.3033388              -8.2543
        96        0.0040           -0.2999278              -8.1615
        97        0.0000           -0.2161193              -5.8809
        98        0.0000           -0.1772233              -4.8225
        99        0.0000           -0.1610180              -4.3815
       100                         -0.1246435              -3.3917
       101                         -0.0827651              -2.2522
       ...                                ...                  ...
       171                          0.5861824              15.9508
      -------------------------------------------------------------
                  HL-Gap            0.0362247 Eh            0.9857 eV

     #   Z          covCN         q      C6AA      α(0)
     1   7 N        1.774    -0.277    27.997     7.835
     2   6 C        2.827     0.101    25.762     8.317
     3   6 C        3.907     0.006    20.418     6.423
     4   6 C        2.974     0.001    27.992     8.679
     5   6 C        2.921    -0.080    30.009     8.983
     6   6 C        2.863     0.127    25.210     8.230
     7   8 O        1.706    -0.237    17.925     5.716
     8   6 C        3.644     0.030    20.408     6.493
     9   6 C        2.864     0.126    25.238     8.235
    10   8 O        1.706    -0.236    17.911     5.714
    11   6 C        3.645     0.029    20.412     6.493
    12   6 C        2.914    -0.076    29.894     8.966
    13   6 C        2.922    -0.055    29.356     8.885
    14   6 C        3.812    -0.064    21.715     6.633
    15   6 C        3.801    -0.067    21.777     6.644
    16   6 C        2.841    -0.005    28.136     8.693
    17   7 N        2.729    -0.006    21.375     6.867
    18   6 C        3.755    -0.014    20.873     6.514
    19   6 C        3.808    -0.073    21.894     6.661
    20   6 C        2.969     0.011    27.772     8.644
    21   6 C        2.924    -0.050    29.245     8.868
    22   6 C        2.912    -0.049    29.217     8.863
    23   6 C        2.859     0.075    26.318     8.409
    24   8 O        2.489    -0.124    16.150     5.428
    25   6 C        2.692    -0.145    31.696     9.214
    26   6 C        2.859     0.141    24.927     8.183
    27   8 O        1.706    -0.243    18.023     5.732
    28   6 C        3.645     0.026    20.476     6.504
    29   6 C        2.924    -0.080    29.998     8.982
    30   6 C        3.698    -0.067    21.950     6.701
    31   6 C        3.853    -0.007    20.671     6.466
    32   6 C        3.756    -0.118    22.809     6.810
    33   6 C        3.755    -0.117    22.802     6.809
    34   1 H        0.926     0.049     2.328     2.386
    35   1 H        0.924     0.051     2.307     2.375
    36   1 H        0.925     0.077     2.005     2.214
    37   1 H        0.924     0.044     2.393     2.419
    38   1 H        0.924     0.052     2.297     2.370
    39   1 H        0.925     0.077     2.007     2.215
    40   1 H        0.924     0.044     2.395     2.420
    41   1 H        0.926     0.048     2.346     2.395
    42   1 H        0.926     0.036     2.498     2.472
    43   1 H        0.925     0.056     2.246     2.344
    44   1 H        0.924     0.050     2.317     2.380
    45   1 H        0.925     0.063     2.168     2.302
    46   1 H        0.923     0.071     2.070     2.250
    47   1 H        0.922     0.004     2.992     2.705
    48   1 H        0.926     0.059     2.207     2.323
    49   1 H        0.924     0.062     2.171     2.304
    50   1 H        0.924     0.066     2.133     2.284
    51   1 H        0.924     0.058     2.219     2.330
    52   1 H        0.924     0.059     2.213     2.327
    53   1 H        0.926     0.058     2.225     2.332
    54   1 H        0.926     0.071     2.080     2.255
    55   1 H        0.925     0.037     2.491     2.468
    56   1 H        0.810     0.345     0.600     1.216
    57   1 H        0.925     0.037     2.492     2.469
    58   1 H        0.925     0.082     1.956     2.187
    59   1 H        0.924     0.052     2.298     2.371
    60   1 H        0.924     0.053     2.281     2.362
    61   1 H        0.926     0.057     2.239     2.340
    62   1 H        0.924     0.069     2.096     2.264
    63   1 H        0.924     0.079     1.991     2.206
    64   1 H        0.925     0.072     2.064     2.247
    65   1 H        0.924     0.034     2.529     2.487
    66   1 H        0.925     0.067     2.115     2.274
    67   1 H        0.925     0.034     2.529     2.487
    68   1 H        0.925     0.048     2.349     2.397
    69   1 H        0.925     0.059     2.211     2.325
    70   1 H        0.925     0.032     2.557     2.501
    71   1 H        0.925     0.051     2.306     2.375
    72   1 H        0.860     0.151     1.393     1.849

Wiberg/Mayer (AO) data.
largest (>0.10) Wiberg bond orders for each atom

     #   Z sym  total        # sym  WBO       # sym  WBO       # sym  WBO
 ---------------------------------------------------------------------------
     1   7 N    3.033 --     2 C    1.950    72 H    0.944
     2   6 C    3.924 --     1 N    1.950     3 C    0.996    47 H    0.904
     3   6 C    3.979 --     2 C    0.996     4 C    0.969    14 C    0.958
                            31 C    0.945
     4   6 C    3.958 --    13 C    1.421     5 C    1.366     3 C    0.969
     5   6 C    3.967 --     6 C    1.406     4 C    1.366    34 H    0.958
     6   6 C    3.913 --     5 C    1.406     9 C    1.230     7 O    1.090
     7   8 O    2.252 --     6 C    1.090     8 C    0.980
     8   6 C    3.936 --     7 O    0.980    36 H    0.977    35 H    0.974
                            37 H    0.974
     9   6 C    3.910 --    12 C    1.399     6 C    1.230    10 O    1.091
    10   8 O    2.250 --     9 C    1.091    11 C    0.980
    11   6 C    3.936 --    10 O    0.980    39 H    0.978    40 H    0.975
                            38 H    0.974
    12   6 C    3.967 --    13 C    1.399     9 C    1.399    41 H    0.964
    13   6 C    3.963 --     4 C    1.421    12 C    1.399    42 H    0.963
    14   6 C    3.972 --    15 C    0.982    44 H    0.973    43 H    0.969
                             3 C    0.958
    15   6 C    3.987 --    16 C    1.058    14 C    0.982    45 H    0.962
                            46 H    0.930
    16   6 C    3.517 --    17 N    1.345    15 C    1.058    48 H    0.960
    17   7 N    3.428 --    16 C    1.345    30 C    1.001    18 C    0.996
    18   6 C    3.962 --    17 N    0.996    50 H    0.968    49 H    0.965
                            19 C    0.964
    19   6 C    3.978 --    20 C    1.014    51 H    0.972    52 H    0.971
                            18 C    0.964
    20   6 C    3.943 --    29 C    1.397    21 C    1.397    19 C    1.014
    21   6 C    3.965 --    22 C    1.427    20 C    1.397    53 H    0.967
    22   6 C    3.947 --    21 C    1.427    23 C    1.409    54 H    0.963
    23   6 C    3.813 --    22 C    1.409    26 C    1.304    24 O    0.888
    24   8 O    2.569 --    23 C    0.888    56 H    0.865    25 C    0.760
    25   6 C    2.743 --    55 H    0.979    57 H    0.971    24 O    0.760
    26   6 C    3.925 --    29 C    1.359    23 C    1.304    27 O    1.100
    27   8 O    2.266 --    26 C    1.100    28 C    0.972
    28   6 C    3.931 --    58 H    0.977    59 H    0.976    60 H    0.976
                            27 O    0.972
    29   6 C    3.946 --    20 C    1.397    26 C    1.359    61 H    0.963
    30   6 C    3.961 --    17 N    1.001    64 H    0.978    62 H    0.967
                            63 H    0.963
    31   6 C    3.977 --    33 C    1.009    32 C    1.009    65 H    0.962
                             3 C    0.945
    32   6 C    3.983 --    31 C    1.009    67 H    0.983    68 H    0.983
                            66 H    0.976
    33   6 C    3.987 --    31 C    1.009    70 H    0.984    71 H    0.981
                            69 H    0.978
    34   1 H    0.996 --     5 C    0.958
    35   1 H    0.995 --     8 C    0.974
    36   1 H    0.993 --     8 C    0.977
    37   1 H    0.995 --     8 C    0.974
    38   1 H    0.994 --    11 C    0.974
    39   1 H    0.993 --    11 C    0.978
    40   1 H    0.995 --    11 C    0.975
    41   1 H    0.996 --    12 C    0.964
    42   1 H    0.998 --    13 C    0.963
    43   1 H    0.995 --    14 C    0.969
    44   1 H    0.997 --    14 C    0.973
    45   1 H    0.995 --    15 C    0.962
    46   1 H    0.967 --    15 C    0.930
    47   1 H    0.990 --     2 C    0.904
    48   1 H    0.996 --    16 C    0.960
    49   1 H    0.992 --    18 C    0.965
    50   1 H    0.995 --    18 C    0.968
    51   1 H    0.996 --    19 C    0.972
    52   1 H    0.996 --    19 C    0.971
    53   1 H    0.996 --    21 C    0.967
    54   1 H    0.994 --    22 C    0.963
    55   1 H    0.984 --    25 C    0.979
    56   1 H    0.880 --    24 O    0.865
    57   1 H    0.985 --    25 C    0.971
    58   1 H    0.993 --    28 C    0.977
    59   1 H    0.997 --    28 C    0.976
    60   1 H    0.997 --    28 C    0.976
    61   1 H    0.996 --    29 C    0.963
    62   1 H    0.984 --    30 C    0.967
    63   1 H    0.988 --    30 C    0.963
    64   1 H    0.994 --    30 C    0.978
    65   1 H    0.995 --    31 C    0.962
    66   1 H    0.993 --    32 C    0.976
    67   1 H    0.997 --    32 C    0.983
    68   1 H    0.995 --    32 C    0.983
    69   1 H    0.994 --    33 C    0.978
    70   1 H    0.998 --    33 C    0.984
    71   1 H    0.995 --    33 C    0.981
    72   1 H    0.973 --     1 N    0.944
 ---------------------------------------------------------------------------

molecular dipole:
                 x           y           z       tot (Debye)
 q only:        3.427      -0.379      -1.309
   full:        4.063      -0.800      -1.498      11.192

           -------------------------------------------------
          | TOTAL ENERGY              -99.844840498494 Eh   |
          | GRADIENT NORM               0.002403070858 Eh/α |
          | HOMO-LUMO GAP               0.985723132931 eV   |
           -------------------------------------------------

 * finished run on 2024/04/06 at 11:13:56.222
