   * xtb version 6.6.1 (8d0f1dd) compiled by 'conda@1efc2f54142f' on 2023-08-01
          program call               : xtb xtbopt.xyz --opt crude --input .xc2 --gfn2

   ID    Z sym.   atoms
    1    7 N      1, 17
    2    6 C      2-6, 8, 9, 11-16, 18-23, 25, 26, 28-33
    3    8 O      7, 10, 24, 27
    4    1 H      34-72
########################################################################
[WARNING] Please study the warnings concerning your input carefully
-1- readin_getIntValue: could not parse ''
########################################################################

          :  Hamiltonian                  GFN2-xTB          :
 * total energy  :   -99.2321764 Eh     change       -0.2940652E-09 Eh
 * total energy  :   -99.2800872 Eh     change       -0.4791077E-01 Eh
 * total energy  :   -99.2804540 Eh     change       -0.3668003E-03 Eh
 * total energy  :   -99.2806292 Eh     change       -0.1751626E-03 Eh
   *** GEOMETRY OPTIMIZATION CONVERGED AFTER 4 ITERATIONS ***

 final structure:
================
72
 xtb: 6.6.1 (8d0f1dd)
N           -1.94860456262778        2.85906193136412        2.29752695086799
C           -1.86854832308791        2.15708449616640        1.26595694372077
C           -2.99225523893369        1.93803628440552        0.29110628951158
C           -3.45268491108765        0.48970349961239        0.36358916764237
C           -4.34823121414308       -0.00043273441959       -0.58958193903416
C           -4.80822021961211       -1.30504143393815       -0.54740542345906
O           -5.68069660604907       -1.85300134550450       -1.42319188811075
C           -6.27268055590912       -1.03422609818769       -2.40313779552645
C           -4.35390340264793       -2.17407313371965        0.47847297171199
O           -4.84615983773555       -3.43207841586159        0.43586241720748
C           -4.50892767864200       -4.32984829049863        1.46620060920425
C           -3.46886997674331       -1.68221423423755        1.42283667947296
C           -3.02677380711679       -0.36546851877645        1.36636674607051
C           -2.40230891111330        2.23518128287831       -1.11245401324705
C           -1.45103545746061        1.15099619268451       -1.65033347362687
C           -0.12291208663984        1.14475058578932       -0.99633289856036
N            0.53952650757846        0.05319303937042       -0.59350458107390
C            1.94592131691736        0.12788142750848       -0.28863367019341
C            2.81497496720834       -0.37744906600990       -1.46087981365548
C            4.26681063379328       -0.15557326220130       -1.15182583325524
C            4.89204245011252        1.02531541491430       -1.53608443623673
C            6.21368822406934        1.25791693960143       -1.19845054898069
C            6.90761824378701        0.30043856265658       -0.48219751272574
O            8.26148817613233        0.50312494884012       -0.07495598391263
C            8.37154087267833        1.55555039004430        0.99243379685465
C            6.30850337558194       -0.90525489352715       -0.08479728229807
O            7.09734784139347       -1.75774744610697        0.60050182239111
C            6.56897647988493       -2.99909593845399        1.01454519066785
C            4.97595072328607       -1.11331241208389       -0.43094586123926
C           -0.07204692041709       -1.25302053047809       -0.58470729556068
C           -4.22372002674766        2.85538957083517        0.54968359166059
C           -4.89960211644801        2.52480823549050        1.87837457217110
C           -3.88472400820160        4.34285639836616        0.50017419105213
H           -4.70068647547885        0.65513748601311       -1.36832287497612
H           -6.81425940938564       -0.19674298039093       -1.95274289373932
H           -6.97611114295728       -1.67443831725375       -2.93197277120097
H           -5.53087970081905       -0.65206705102875       -3.11239748728885
H           -4.82377162959189       -3.95471750710993        2.44465720361987
H           -5.04824493844562       -5.24801145781266        1.24160760341147
H           -3.43381980528423       -4.53721113176464        1.48346505965417
H           -3.12187098900023       -2.31320082963391        2.22502760319512
H           -2.36194936299001       -0.01019141115922        2.13849268584066
H           -3.22343953652083        2.34533773275197       -1.82001312962071
H           -1.86989615496296        3.18643795300971       -1.07533996145422
H           -1.93374703206320        0.17735509273841       -1.58904308303356
H           -1.29134077410898        1.37577096144772       -2.71381556056210
H           -0.94007147082036        1.65269247920114        0.93433430150265
H            0.43315865029305        2.06982440615487       -0.98677013265970
H            2.15563361004200       -0.47039156425926        0.60263369918881
H            2.21291228449049        1.16477518859676       -0.07390507964965
H            2.53601643680809        0.17147939155053       -2.36153050606668
H            2.61986506980570       -1.43750917578153       -1.62612371506501
H            4.34941415087779        1.76430941071075       -2.10350454687695
H            6.70310732995006        2.17746024016111       -1.47846350226065
H            7.75675830154022        1.24789213367524        1.82826748149080
H            8.79295644048499        0.84164464372449       -0.81791862765744
H            9.42361189286772        1.64172943912586        1.23122175887974
H            7.38465694741659       -3.50418098788093        1.52771863631915
H            5.73315325273692       -2.86564913942063        1.70681506340990
H            6.25046013627222       -3.60077274297162        0.15890594105739
H            4.48300005088222       -2.02906698712622       -0.14686175682098
H           -0.18430245147082       -1.65117758016255       -1.59652606398764
H           -1.05640903586811       -1.20749864883821       -0.11415896821298
H            0.55196210912826       -1.93454796917328       -0.01080242567846
H           -4.94033151038321        2.64558450119699       -0.25278652053287
H           -4.22467066905556        2.73638508004284        2.70108623288749
H           -5.19160546388510        1.47834396418545        1.92046257364818
H           -5.79208479384126        3.13425525855671        1.99447983386836
H           -3.15136983090584        4.58742708584706        1.26215397134961
H           -3.50423810790898        4.64033628358876       -0.47350185736847
H           -4.78438837915161        4.92030143952463        0.69639338666623
H           -1.11214635275273        2.95358338594220        2.86583158181672

          :  Hamiltonian                  GFN2-xTB          :
         :: total energy             -99.280629182708 Eh    ::
         :: gradient norm              0.003070282677 Eh/a0 ::
         :: HOMO-LUMO gap              0.978105782665 eV    ::
         :: SCC energy              -100.650559978496 Eh    ::
         :: -> dispersion             -0.075614437873 Eh    ::
         :: repulsion energy           1.368623716833 Eh    ::

    * Orbital Energies and Occupations

         #    Occupation            Energy/Eh            Energy/eV
      -------------------------------------------------------------
         1        2.0000           -0.8665314             -23.5795
       ...           ...                  ...                  ...
        78        1.9993           -0.5243637             -14.2687
        79        1.9989           -0.5168390             -14.0639
        80        1.9989           -0.5166459             -14.0587
        81        1.9988           -0.5154999             -14.0275
        82        1.9983           -0.5096310             -13.8678
        83        1.9973           -0.5024444             -13.6722
        84        1.9969           -0.4997518             -13.5989
        85        1.9962           -0.4968996             -13.5213
        86        1.9949           -0.4921846             -13.3930
        87        1.9867           -0.4768673             -12.9762
        88        1.9549           -0.4572807             -12.4432
        89        1.9126           -0.4464388             -12.1482
        90        1.5363           -0.4165489             -11.3349 (HOMO)
        91        0.5099           -0.3806042             -10.3568 (LUMO)
        92        0.0673           -0.3444249              -9.3723
        93        0.0276           -0.3299832              -8.9793
        94        0.0192           -0.3241823              -8.8214
        95        0.0050           -0.3027758              -8.2389
        96        0.0040           -0.2993486              -8.1457
        97        0.0000           -0.2148697              -5.8469
        98        0.0000           -0.1766332              -4.8064
        99        0.0000           -0.1726502              -4.6980
       100                         -0.1238310              -3.3696
       101                         -0.0792854              -2.1575
       ...                                ...                  ...
       171                          0.5868181              15.9681
      -------------------------------------------------------------
                  HL-Gap            0.0359447 Eh            0.9781 eV

     #   Z          covCN         q      C6AA      α(0)
     1   7 N        1.773    -0.277    28.006     7.837
     2   6 C        2.827     0.101    25.762     8.317
     3   6 C        3.907     0.006    20.419     6.423
     4   6 C        2.974     0.001    27.994     8.679
     5   6 C        2.921    -0.080    30.010     8.984
     6   6 C        2.863     0.127    25.212     8.230
     7   8 O        1.706    -0.237    17.929     5.717
     8   6 C        3.644     0.030    20.406     6.493
     9   6 C        2.864     0.126    25.240     8.235
    10   8 O        1.706    -0.236    17.916     5.715
    11   6 C        3.645     0.030    20.410     6.493
    12   6 C        2.914    -0.076    29.895     8.966
    13   6 C        2.922    -0.055    29.357     8.885
    14   6 C        3.812    -0.064    21.714     6.633
    15   6 C        3.802    -0.067    21.776     6.644
    16   6 C        2.841    -0.005    28.141     8.694
    17   7 N        2.729    -0.006    21.379     6.867
    18   6 C        3.755    -0.013    20.869     6.514
    19   6 C        3.808    -0.073    21.891     6.660
    20   6 C        2.969     0.010    27.781     8.646
    21   6 C        2.924    -0.050    29.249     8.869
    22   6 C        2.912    -0.050    29.247     8.868
    23   6 C        2.859     0.077    26.269     8.401
    24   8 O        2.486    -0.118    16.065     5.413
    25   6 C        2.696    -0.141    31.599     9.200
    26   6 C        2.859     0.141    24.916     8.182
    27   8 O        1.706    -0.243    18.019     5.731
    28   6 C        3.645     0.026    20.468     6.503
    29   6 C        2.923    -0.080    30.005     8.983
    30   6 C        3.698    -0.067    21.947     6.700
    31   6 C        3.853    -0.007    20.671     6.466
    32   6 C        3.756    -0.118    22.809     6.810
    33   6 C        3.755    -0.117    22.800     6.808
    34   1 H        0.926     0.049     2.330     2.387
    35   1 H        0.924     0.051     2.309     2.376
    36   1 H        0.925     0.077     2.007     2.215
    37   1 H        0.924     0.044     2.395     2.420
    38   1 H        0.924     0.052     2.299     2.371
    39   1 H        0.925     0.077     2.009     2.216
    40   1 H        0.924     0.044     2.397     2.421
    41   1 H        0.926     0.048     2.348     2.396
    42   1 H        0.926     0.036     2.499     2.472
    43   1 H        0.925     0.056     2.247     2.344
    44   1 H        0.924     0.050     2.318     2.381
    45   1 H        0.925     0.063     2.169     2.303
    46   1 H        0.923     0.071     2.074     2.252
    47   1 H        0.922     0.004     2.993     2.706
    48   1 H        0.926     0.059     2.211     2.325
    49   1 H        0.924     0.062     2.174     2.306
    50   1 H        0.924     0.065     2.136     2.286
    51   1 H        0.924     0.058     2.223     2.332
    52   1 H        0.924     0.058     2.217     2.329
    53   1 H        0.926     0.057     2.233     2.337
    54   1 H        0.926     0.069     2.100     2.266
    55   1 H        0.925     0.036     2.498     2.472
    56   1 H        0.804     0.346     0.597     1.214
    57   1 H        0.925     0.035     2.519     2.482
    58   1 H        0.925     0.082     1.961     2.190
    59   1 H        0.924     0.051     2.303     2.373
    60   1 H        0.924     0.053     2.287     2.365
    61   1 H        0.926     0.056     2.245     2.343
    62   1 H        0.924     0.069     2.098     2.265
    63   1 H        0.924     0.079     1.992     2.207
    64   1 H        0.925     0.072     2.066     2.248
    65   1 H        0.924     0.034     2.530     2.488
    66   1 H        0.925     0.067     2.115     2.274
    67   1 H        0.925     0.034     2.529     2.487
    68   1 H        0.925     0.048     2.351     2.398
    69   1 H        0.925     0.059     2.212     2.326
    70   1 H        0.925     0.032     2.558     2.501
    71   1 H        0.925     0.051     2.308     2.376
    72   1 H        0.860     0.151     1.394     1.849

Wiberg/Mayer (AO) data.
largest (>0.10) Wiberg bond orders for each atom

     #   Z sym  total        # sym  WBO       # sym  WBO       # sym  WBO
 ---------------------------------------------------------------------------
     1   7 N    3.033 --     2 C    1.950    72 H    0.944
     2   6 C    3.924 --     1 N    1.950     3 C    0.996    47 H    0.903
     3   6 C    3.979 --     2 C    0.996     4 C    0.969    14 C    0.958
                            31 C    0.945
     4   6 C    3.958 --    13 C    1.421     5 C    1.366     3 C    0.969
     5   6 C    3.967 --     6 C    1.406     4 C    1.366    34 H    0.958
     6   6 C    3.914 --     5 C    1.406     9 C    1.231     7 O    1.090
     7   8 O    2.252 --     6 C    1.090     8 C    0.980
     8   6 C    3.936 --     7 O    0.980    36 H    0.977    35 H    0.974
                            37 H    0.974
     9   6 C    3.911 --    12 C    1.399     6 C    1.231    10 O    1.091
    10   8 O    2.250 --     9 C    1.091    11 C    0.980
    11   6 C    3.936 --    10 O    0.980    39 H    0.978    40 H    0.975
                            38 H    0.974
    12   6 C    3.968 --     9 C    1.399    13 C    1.399    41 H    0.964
    13   6 C    3.963 --     4 C    1.421    12 C    1.399    42 H    0.963
    14   6 C    3.972 --    15 C    0.982    44 H    0.973    43 H    0.969
                             3 C    0.958
    15   6 C    3.987 --    16 C    1.058    14 C    0.982    45 H    0.962
                            46 H    0.930
    16   6 C    3.517 --    17 N    1.344    15 C    1.058    48 H    0.960
    17   7 N    3.427 --    16 C    1.344    30 C    1.001    18 C    0.996
    18   6 C    3.962 --    17 N    0.996    50 H    0.968    49 H    0.965
                            19 C    0.964
    19   6 C    3.978 --    20 C    1.014    51 H    0.972    52 H    0.971
                            18 C    0.964
    20   6 C    3.944 --    21 C    1.398    29 C    1.396    19 C    1.014
    21   6 C    3.965 --    22 C    1.425    20 C    1.398    53 H    0.967
    22   6 C    3.947 --    21 C    1.425    23 C    1.411    54 H    0.963
    23   6 C    3.817 --    22 C    1.411    26 C    1.301    24 O    0.894
    24   8 O    2.573 --    23 C    0.894    56 H    0.853    25 C    0.771
    25   6 C    2.751 --    55 H    0.976    57 H    0.971    24 O    0.771
    26   6 C    3.924 --    29 C    1.360    23 C    1.301    27 O    1.100
    27   8 O    2.266 --    26 C    1.100    28 C    0.972
    28   6 C    3.931 --    58 H    0.977    59 H    0.976    60 H    0.976
                            27 O    0.972
    29   6 C    3.946 --    20 C    1.396    26 C    1.360    61 H    0.963
    30   6 C    3.961 --    17 N    1.001    64 H    0.978    62 H    0.967
                            63 H    0.963
    31   6 C    3.977 --    33 C    1.009    32 C    1.009    65 H    0.962
                             3 C    0.945
    32   6 C    3.984 --    31 C    1.009    67 H    0.983    68 H    0.983
                            66 H    0.976
    33   6 C    3.987 --    31 C    1.009    70 H    0.984    71 H    0.981
                            69 H    0.978
    34   1 H    0.996 --     5 C    0.958
    35   1 H    0.995 --     8 C    0.974
    36   1 H    0.993 --     8 C    0.977
    37   1 H    0.995 --     8 C    0.974
    38   1 H    0.995 --    11 C    0.974
    39   1 H    0.993 --    11 C    0.978
    40   1 H    0.995 --    11 C    0.975
    41   1 H    0.996 --    12 C    0.964
    42   1 H    0.998 --    13 C    0.963
    43   1 H    0.996 --    14 C    0.969
    44   1 H    0.997 --    14 C    0.973
    45   1 H    0.995 --    15 C    0.962
    46   1 H    0.967 --    15 C    0.930
    47   1 H    0.990 --     2 C    0.903
    48   1 H    0.996 --    16 C    0.960
    49   1 H    0.992 --    18 C    0.965
    50   1 H    0.995 --    18 C    0.968
    51   1 H    0.996 --    19 C    0.972
    52   1 H    0.996 --    19 C    0.971
    53   1 H    0.996 --    21 C    0.967
    54   1 H    0.994 --    22 C    0.963
    55   1 H    0.985 --    25 C    0.976
    56   1 H    0.877 --    24 O    0.853
    57   1 H    0.985 --    25 C    0.971
    58   1 H    0.993 --    28 C    0.977
    59   1 H    0.997 --    28 C    0.976
    60   1 H    0.997 --    28 C    0.976
    61   1 H    0.996 --    29 C    0.963
    62   1 H    0.984 --    30 C    0.967
    63   1 H    0.988 --    30 C    0.963
    64   1 H    0.994 --    30 C    0.978
    65   1 H    0.995 --    31 C    0.962
    66   1 H    0.993 --    32 C    0.976
    67   1 H    0.998 --    32 C    0.983
    68   1 H    0.995 --    32 C    0.983
    69   1 H    0.995 --    33 C    0.978
    70   1 H    0.998 --    33 C    0.984
    71   1 H    0.995 --    33 C    0.981
    72   1 H    0.973 --     1 N    0.944
 ---------------------------------------------------------------------------

molecular dipole:
                 x           y           z       tot (Debye)
 q only:        3.606      -0.333      -1.385
   full:        4.214      -0.747      -1.553      11.570

           -------------------------------------------------
          | TOTAL ENERGY              -99.280629182708 Eh   |
          | GRADIENT NORM               0.003070282677 Eh/α |
          | HOMO-LUMO GAP               0.978105782665 eV   |
           -------------------------------------------------

 * finished run on 2024/04/06 at 11:13:57.183
