   * xtb version 6.6.1 (8d0f1dd) compiled by 'conda@1efc2f54142f' on 2023-08-01
          program call               : xtb struc.xyz --opt loose --input .xc1 --gfn2

   ID    Z sym.   atoms
    1    6 C      1, 3, 5-7, 10, 11, 14
    2    7 N      2, 4, 9, 13
    3    8 O      8, 12
    4    1 H      15-25
constraining bond 11 23 to    3.7133300 Å, actual value:    3.1827480 Å

          :  Hamiltonian                  GFN2-xTB          :
 * total energy  :   -42.7479416 Eh     change       -0.6633627E-10 Eh
 * total energy  :   -44.9333771 Eh     change       -0.2185435E+01 Eh
 * total energy  :   -48.7777787 Eh     change       -0.3844402E+01 Eh
 * total energy  :   -54.4483839 Eh     change       -0.5670605E+01 Eh
 * total energy  :   -58.0275866 Eh     change       -0.3579203E+01 Eh
 * total energy  :   -57.9133097 Eh     change        0.1142769E+00 Eh
 * total energy  :   -58.8656468 Eh     change       -0.9523371E+00 Eh
 * total energy  :   -58.0256919 Eh     change        0.8399549E+00 Eh
 * total energy  :   -59.2575445 Eh     change       -0.1231853E+01 Eh
 * total energy  :   -59.3402246 Eh     change       -0.8268009E-01 Eh
 * total energy  :   -59.7320012 Eh     change       -0.6649417E-04 Eh
 * total energy  :   -59.7320454 Eh     change       -0.4414632E-04 Eh
 * total energy  :   -59.7321416 Eh     change       -0.9625271E-04 Eh
 * total energy  :   -59.7322126 Eh     change       -0.7098620E-04 Eh
 * total energy  :   -59.7322839 Eh     change       -0.7124345E-04 Eh
 * total energy  :   -59.7323493 Eh     change       -0.6545827E-04 Eh
 * total energy  :   -59.7306164 Eh     change        0.1732896E-02 Eh
 * total energy  :   -59.7324209 Eh     change       -0.1804500E-02 Eh
 * total energy  :   -59.7324573 Eh     change       -0.3632529E-04 Eh
   *** GEOMETRY OPTIMIZATION CONVERGED AFTER 70 ITERATIONS ***

 final structure:
================
25
 xtb: 6.6.1 (8d0f1dd)
C            2.95774508488900        1.09603103073627       -0.22776105665917
N            2.13882880470780       -0.07483797799193       -0.04365411791755
C            2.59588897019501       -1.31304512219005        0.03411875221178
N            1.56977613280470       -2.15352815843512        0.20809305988128
C            0.39948831200101       -1.42899721172057        0.20738837976679
C            0.76707108333272       -0.10162241218598        0.02208092017143
C           -0.06284701368263        1.13704826764802        0.19082194150757
O            0.39025152786972        2.07987520366667        0.79859861638184
N           -1.32218036044385        1.08473054519679       -0.32260079827526
C           -2.26933704739653        2.13031404541714        0.01415771816047
C           -1.71230733206108        0.07289823865083       -1.30565779565645
O           -2.87538779295343        0.17792533124685       -1.68068019023284
N           -0.84819494968847       -1.94625730407046        0.23523853902175
C           -1.30478015224111       -2.84797573347130        0.98705778363611
H            3.90040636897772        0.97264717609497        0.30103998729269
H            3.16363348868014        1.25007159611132       -1.28804860881573
H            2.43482803147200        1.96681931313309        0.16554278480683
H            3.62796550520341       -1.60004572451842       -0.03565628299337
H           -1.77101576266875        2.88236662399264        0.61908749112419
H           -2.65793928097374        2.57385565906191       -0.90116958446870
H           -3.10209106054167        1.69254151304819        0.56346054365490
H           -0.76807062640464       -3.30041730939872        1.82101165504858
H           -1.40933853001025       -0.20301155980137       -1.41605253399749
H           -2.32049674793790       -3.16903141641629        0.80637965341407
H            1.63853486097264       -3.16011607220413        0.27837476083786

          :  Hamiltonian                  GFN2-xTB          :
         :: total energy             -59.732457251164 Eh    ::
         :: gradient norm              0.003298067901 Eh/a0 ::
         :: HOMO-LUMO gap              2.443029227474 eV    ::
         :: SCC energy               -42.698773182939 Eh    ::
         :: -> dispersion             -0.022282143616 Eh    ::
         :: repulsion energy           2.280486430316 Eh    ::

    * Orbital Energies and Occupations

         #    Occupation            Energy/Eh            Energy/eV
      -------------------------------------------------------------
         1        2.0000           -0.9175218             -24.9670
       ...           ...                  ...                  ...
        25        2.0000           -0.6689627             -18.2034
        26        2.0000           -0.6579643             -17.9041
        27        2.0000           -0.6548496             -17.8194
        28        2.0000           -0.6454476             -17.5635
        29        2.0000           -0.6388175             -17.3831
        30        2.0000           -0.6236330             -16.9699
        31        2.0000           -0.6166459             -16.7798
        32        2.0000           -0.6051673             -16.4674
        33        2.0000           -0.5896102             -16.0441
        34        1.9997           -0.5675906             -15.4449
        35        1.9989           -0.5583424             -15.1933
        36        1.9962           -0.5484249             -14.9234
        37        1.9951           -0.5465088             -14.8713 (HOMO)
        38        0.0097           -0.4567291             -12.4282 (LUMO)
        39        0.0005           -0.4335099             -11.7964
        40        0.0000           -0.4062561             -11.0548
        41        0.0000           -0.3753405             -10.2135
        42                         -0.3269952              -8.8980
        43                         -0.1924810              -5.2377
        44                         -0.1765442              -4.8040
        45                         -0.1359674              -3.6999
        46                         -0.0862324              -2.3465
        47                         -0.0577818              -1.5723
        48                         -0.0486897              -1.3249
       ...                                ...                  ...
        67                         10.6076866             288.6498
      -------------------------------------------------------------
                  HL-Gap            0.0897797 Eh            2.4430 eV

     #   Z          covCN         q      C6AA      α(0)
     1   6 C        3.693    -0.098    22.553     6.795
     2   7 N        2.851     0.093    19.634     6.581
     3   6 C        3.038     0.060    26.612     8.461
     4   7 N        2.809    -0.055    22.296     7.013
     5   6 C        3.029     0.123    25.265     8.245
     6   6 C        3.095    -0.015    28.275     8.715
     7   6 C        2.762     0.276    22.330     7.739
     8   8 O        0.859    -0.367    21.025     6.148
     9   7 N        2.738    -0.098    23.151     7.146
    10   6 C        3.697    -0.061    21.850     6.686
    11   6 C        2.702     0.189    23.942     8.009
    12   8 O        0.867    -0.310    19.965     5.991
    13   7 N        1.824    -0.148    24.988     7.407
    14   6 C        2.791     0.050    26.854     8.489
    15   1 H        0.925     0.106     1.730     2.057
    16   1 H        0.924     0.109     1.707     2.043
    17   1 H        0.925     0.141     1.453     1.885
    18   1 H        0.926     0.128     1.554     1.949
    19   1 H        0.925     0.100     1.783     2.088
    20   1 H        0.925     0.097     1.812     2.105
    21   1 H        0.925     0.091     1.865     2.135
    22   1 H        0.925     0.074     2.038     2.233
    23   1 H        0.946     0.160     1.324     1.799
    24   1 H        0.926     0.123     1.586     1.970
    25   1 H        0.860     0.229     0.970     1.543

Wiberg/Mayer (AO) data.
largest (>0.10) Wiberg bond orders for each atom

     #   Z sym  total        # sym  WBO       # sym  WBO       # sym  WBO
 ---------------------------------------------------------------------------
     1   6 C    3.913 --     2 N    0.982    15 H    0.968    16 H    0.954
                            17 H    0.954
     2   7 N    3.734 --     3 C    1.406     6 C    1.195     1 C    0.982
     3   6 C    3.941 --     2 N    1.406     4 N    1.323    18 H    0.950
     4   7 N    3.626 --     3 C    1.323     5 C    1.163    25 H    0.919
     5   6 C    3.954 --     6 C    1.407    13 N    1.190     4 N    1.163
     6   6 C    3.930 --     5 C    1.407     2 N    1.195     7 C    0.972
     7   6 C    3.965 --     8 O    1.700     9 N    1.199     6 C    0.972
     8   8 O    2.078 --     7 C    1.700     9 N    0.160
     9   7 N    3.583 --     7 C    1.199    11 C    1.043    10 C    0.980
                            12 O    0.162     8 O    0.160
    10   6 C    3.933 --     9 N    0.980    19 H    0.972    20 H    0.967
                            21 H    0.964
    11   6 C    3.926 --    12 O    1.848     9 N    1.043    23 H    0.961
    12   8 O    2.108 --    11 C    1.848     9 N    0.162
    13   7 N    3.244 --    14 C    1.872     5 C    1.190
    14   6 C    3.910 --    13 N    1.872    24 H    0.956    22 H    0.952
    15   1 H    0.988 --     1 C    0.968
    16   1 H    0.988 --     1 C    0.954
    17   1 H    0.980 --     1 C    0.954
    18   1 H    0.983 --     3 C    0.950
    19   1 H    0.990 --    10 C    0.972
    20   1 H    0.989 --    10 C    0.967
    21   1 H    0.990 --    10 C    0.964
    22   1 H    0.994 --    14 C    0.952
    23   1 H    0.974 --    11 C    0.961
    24   1 H    0.984 --    14 C    0.956
    25   1 H    0.947 --     4 N    0.919
 ---------------------------------------------------------------------------

molecular dipole:
                 x           y           z       tot (Debye)
 q only:        2.654      -2.299       0.232
   full:        3.083      -2.922       0.441      10.855

           -------------------------------------------------
          | TOTAL ENERGY              -59.732457251164 Eh   |
          | GRADIENT NORM               0.003298067901 Eh/α |
          | HOMO-LUMO GAP               2.443029227474 eV   |
           -------------------------------------------------

 * finished run on 2024/06/05 at 19:58:12.390
