   * xtb version 6.6.1 (8d0f1dd) compiled by 'conda@1efc2f54142f' on 2023-08-01
          program call               : xtb xtbopt.xyz --opt crude --input .xc2 --gfn2

   ID    Z sym.   atoms
    1    6 C      1, 3, 5-7, 10, 11, 14
    2    7 N      2, 4, 9, 13
    3    8 O      8, 12
    4    1 H      15-25
########################################################################
[WARNING] Please study the warnings concerning your input carefully
-1- readin_getIntValue: could not parse ''
########################################################################

          :  Hamiltonian                  GFN2-xTB          :
 * total energy  :   -40.4180823 Eh     change        0.7105427E-14 Eh
 * total energy  :   -42.1106803 Eh     change       -0.1692598E+01 Eh
 * total energy  :   -42.1400833 Eh     change       -0.2940305E-01 Eh
 * total energy  :   -42.1469706 Eh     change       -0.6887291E-02 Eh
 * total energy  :   -42.1502699 Eh     change       -0.3299273E-02 Eh
 * total energy  :   -42.1509634 Eh     change       -0.6934634E-03 Eh
 * total energy  :   -42.1517333 Eh     change       -0.7699097E-03 Eh
 * total energy  :   -42.1523082 Eh     change       -0.5749723E-03 Eh
 * total energy  :   -42.1528927 Eh     change       -0.5844352E-03 Eh
 * total energy  :   -42.1531266 Eh     change       -0.2339417E-03 Eh
   *** GEOMETRY OPTIMIZATION CONVERGED AFTER 10 ITERATIONS ***

 final structure:
================
25
 xtb: 6.6.1 (8d0f1dd)
C            2.89251840483674        1.09838114577420       -0.26382049187066
N            2.10307342664058       -0.08697668982559       -0.05304733952262
C            2.57977019201694       -1.31559438954264        0.04363380570675
N            1.56664935643882       -2.16754437315594        0.24035618654356
C            0.38440364173582       -1.46028900667419        0.23758631202755
C            0.73124840048067       -0.13200011221323        0.02245950157562
C           -0.09763412827617        1.10321271620518        0.21411807674220
O            0.34292681437040        1.99743081692347        0.89969472009139
N           -1.33719878325441        1.11434581181386       -0.35085195195824
C           -2.26857491923195        2.15849635448195        0.04944760411869
C           -1.75780590179919        0.28065174138270       -1.37667575952994
O           -2.85768811981495        0.32076079369700       -1.83104631268753
N           -0.84860833211793       -2.00626677250552        0.27744044148547
C           -1.29252141990213       -2.87853038278397        1.06919223352881
H            3.89693753693392        0.94549753476401        0.12709701976965
H            2.95540948331774        1.32660056413901       -1.33033260132407
H            2.42469179938980        1.93892826935502        0.25063358302528
H            3.61471464353995       -1.58955723690491       -0.03285140767953
H           -1.75212382265190        2.86479874924826        0.69419001977451
H           -2.65025133439583        2.66511110057199       -0.83521889156500
H           -3.10875355368139        1.71210034224042        0.58088204103005
H           -0.75596855902860       -3.26964660055522        1.93402117568758
H           -0.96370028599843       -0.38056535866883       -1.75424990026549
H           -2.29071943608625       -3.24989990131204        0.88735198066032
H            1.64963641063950       -3.17120657485443        0.33116157253734

          :  Hamiltonian                  GFN2-xTB          :
         :: total energy             -42.153126621610 Eh    ::
         :: gradient norm              0.003991728879 Eh/a0 ::
         :: HOMO-LUMO gap              2.451498544566 eV    ::
         :: SCC energy               -42.698933860082 Eh    ::
         :: -> dispersion             -0.022247202062 Eh    ::
         :: repulsion energy           0.545587913178 Eh    ::

    * Orbital Energies and Occupations

         #    Occupation            Energy/Eh            Energy/eV
      -------------------------------------------------------------
         1        2.0000           -0.9170270             -24.9536
       ...           ...                  ...                  ...
        25        2.0000           -0.6690896             -18.2069
        26        2.0000           -0.6552195             -17.8294
        27        2.0000           -0.6548976             -17.8207
        28        2.0000           -0.6457377             -17.5714
        29        2.0000           -0.6404101             -17.4264
        30        2.0000           -0.6238801             -16.9766
        31        2.0000           -0.6179345             -16.8149
        32        2.0000           -0.6062508             -16.4969
        33        2.0000           -0.5932460             -16.1430
        34        1.9998           -0.5702474             -15.5172
        35        1.9989           -0.5562240             -15.1356
        36        1.9976           -0.5502632             -14.9734
        37        1.9947           -0.5439524             -14.8017 (HOMO)
        38        0.0085           -0.4538615             -12.3502 (LUMO)
        39        0.0006           -0.4322741             -11.7628
        40        0.0000           -0.3994012             -10.8683
        41                         -0.3636477              -9.8954
        42                         -0.3247335              -8.8364
        43                         -0.1913664              -5.2073
        44                         -0.1757541              -4.7825
        45                         -0.1244466              -3.3864
        46                         -0.0698642              -1.9011
        47                         -0.0591173              -1.6087
        48                         -0.0411534              -1.1198
       ...                                ...                  ...
        67                          0.5402271              14.7003
      -------------------------------------------------------------
                  HL-Gap            0.0900909 Eh            2.4515 eV

     #   Z          covCN         q      C6AA      α(0)
     1   6 C        3.693    -0.096    22.521     6.790
     2   7 N        2.852     0.091    19.659     6.585
     3   6 C        3.034     0.061    26.609     8.461
     4   7 N        2.810    -0.056    22.326     7.018
     5   6 C        3.027     0.127    25.194     8.233
     6   6 C        3.093    -0.014    28.260     8.713
     7   6 C        2.766     0.276    22.329     7.739
     8   8 O        0.859    -0.363    20.957     6.138
     9   7 N        2.733    -0.062    22.446     7.036
    10   6 C        3.708    -0.064    21.879     6.686
    11   6 C        2.712     0.249    22.822     7.820
    12   8 O        0.858    -0.291    19.612     5.937
    13   7 N        1.824    -0.141    24.828     7.383
    14   6 C        2.792     0.050    26.859     8.490
    15   1 H        0.925     0.105     1.738     2.062
    16   1 H        0.924     0.109     1.706     2.043
    17   1 H        0.924     0.139     1.469     1.895
    18   1 H        0.926     0.127     1.555     1.950
    19   1 H        0.925     0.103     1.754     2.071
    20   1 H        0.925     0.098     1.805     2.101
    21   1 H        0.925     0.092     1.859     2.132
    22   1 H        0.924     0.075     2.032     2.229
    23   1 H        0.923     0.033     2.548     2.496
    24   1 H        0.926     0.123     1.586     1.969
    25   1 H        0.860     0.229     0.970     1.543

Wiberg/Mayer (AO) data.
largest (>0.10) Wiberg bond orders for each atom

     #   Z sym  total        # sym  WBO       # sym  WBO       # sym  WBO
 ---------------------------------------------------------------------------
     1   6 C    3.915 --     2 N    0.984    15 H    0.971    16 H    0.954
                            17 H    0.953
     2   7 N    3.733 --     3 C    1.406     6 C    1.191     1 C    0.984
     3   6 C    3.940 --     2 N    1.406     4 N    1.320    18 H    0.950
     4   7 N    3.623 --     3 C    1.320     5 C    1.161    25 H    0.920
     5   6 C    3.955 --     6 C    1.402    13 N    1.197     4 N    1.161
     6   6 C    3.930 --     5 C    1.402     2 N    1.191     7 C    0.972
     7   6 C    3.964 --     8 O    1.706     9 N    1.189     6 C    0.972
     8   8 O    2.080 --     7 C    1.706     9 N    0.158
     9   7 N    3.601 --     7 C    1.189    11 C    1.110    10 C    0.966
                             8 O    0.158    12 O    0.136
    10   6 C    3.927 --    19 H    0.973    20 H    0.970    21 H    0.967
                             9 N    0.966
    11   6 C    3.945 --    12 O    1.859     9 N    1.110    23 H    0.918
    12   8 O    2.129 --    11 C    1.859     9 N    0.136
    13   7 N    3.255 --    14 C    1.878     5 C    1.197
    14   6 C    3.911 --    13 N    1.878    24 H    0.956    22 H    0.951
    15   1 H    0.989 --     1 C    0.971
    16   1 H    0.988 --     1 C    0.954
    17   1 H    0.981 --     1 C    0.953
    18   1 H    0.983 --     3 C    0.950
    19   1 H    0.989 --    10 C    0.973
    20   1 H    0.990 --    10 C    0.970
    21   1 H    0.990 --    10 C    0.967
    22   1 H    0.994 --    14 C    0.951
    23   1 H    0.997 --    11 C    0.918
    24   1 H    0.984 --    14 C    0.956
    25   1 H    0.947 --     4 N    0.920
 ---------------------------------------------------------------------------

molecular dipole:
                 x           y           z       tot (Debye)
 q only:        2.560      -2.129       0.397
   full:        3.031      -2.762       0.580      10.526

           -------------------------------------------------
          | TOTAL ENERGY              -42.153126621610 Eh   |
          | GRADIENT NORM               0.003991728879 Eh/α |
          | HOMO-LUMO GAP               2.451498544566 eV   |
           -------------------------------------------------

 * finished run on 2024/06/05 at 19:58:12.795
