   * xtb version 6.6.1 (8d0f1dd) compiled by 'conda@1efc2f54142f' on 2023-08-01
          program call               : xtb struc.xyz --opt loose --input .xc1 --gfn2

   ID    Z sym.   atoms
    1    7 N      1, 17
    2    6 C      2-6, 8, 9, 11-16, 18-23, 25, 26, 28-33
    3    8 O      7, 10, 24, 27
    4    1 H      34-72
constraining bond 2 72 to    4.1400000 Å, actual value:    1.9604601 Å

          :  Hamiltonian                  GFN2-xTB          :
 * total energy  :   -98.5559328 Eh     change       -0.4035485E-08 Eh
 * total energy  :   -98.7690397 Eh     change       -0.2131069E+00 Eh
 * total energy  :   -98.9181605 Eh     change       -0.1491208E+00 Eh
 * total energy  :   -99.0238172 Eh     change       -0.1056567E+00 Eh
 * total energy  :   -99.1369184 Eh     change       -0.1131012E+00 Eh
 * total energy  :   -99.2134906 Eh     change       -0.7657219E-01 Eh
 * total energy  :   -99.2584345 Eh     change       -0.4494388E-01 Eh
 * total energy  :   -99.2700786 Eh     change       -0.1164412E-01 Eh
 * total energy  :   -99.2813267 Eh     change       -0.1124811E-01 Eh
 * total energy  :   -99.2933428 Eh     change       -0.1201607E-01 Eh
 * total energy  :   -99.3237039 Eh     change       -0.6267119E-04 Eh
 * total energy  :   -99.3237554 Eh     change       -0.5152594E-04 Eh
 * total energy  :   -99.3238065 Eh     change       -0.5105345E-04 Eh
 * total energy  :   -99.3238622 Eh     change       -0.5574606E-04 Eh
 * total energy  :   -99.3239192 Eh     change       -0.5699455E-04 Eh
 * total energy  :   -99.3239832 Eh     change       -0.6403845E-04 Eh
 * total energy  :   -99.3240512 Eh     change       -0.6795818E-04 Eh
 * total energy  :   -99.3241117 Eh     change       -0.6047034E-04 Eh
 * total energy  :   -99.3241450 Eh     change       -0.3337747E-04 Eh
   *** GEOMETRY OPTIMIZATION CONVERGED AFTER 44 ITERATIONS ***

 final structure:
================
72
 xtb: 6.6.1 (8d0f1dd)
N           -1.57941007674158        2.60402108279409        2.21453322422804
C           -2.29479646858540        2.29534330134020        1.37674786117954
C           -3.20169152176925        1.97247708126251        0.29389351162081
C           -3.67304940371517        0.53297263466424        0.39639606986192
C           -4.53300504264884        0.02343828487541       -0.57570822985192
C           -4.97555112999029       -1.28962948159312       -0.52725762128525
O           -5.81379941497147       -1.86198230231684       -1.40993577720277
C           -6.37838752366596       -1.08341471860396       -2.43968964284590
C           -4.52973046557969       -2.14153084880588        0.52443626641277
O           -4.99104233059701       -3.40233796674733        0.48049946945765
C           -4.62097531825254       -4.30919801854575        1.49387673722515
C           -3.68006112245003       -1.62010612063416        1.49031929853392
C           -3.26277490116107       -0.29935461766668        1.42958209665292
C           -2.43483108667122        2.20247666194110       -1.03755401046641
C           -1.48841711661511        1.06746290692019       -1.43189258526411
C           -0.33926989965147        0.88266850381881       -0.43619330669928
N            0.61464973605295       -0.10096974167406       -0.88373174775541
C            1.97021440705724        0.02941807942810       -0.41280046370844
C            2.98033100519674       -0.33165676899516       -1.52160513080107
C            4.38468565791404       -0.12788560369458       -1.03799837093146
C            5.02960769404199        1.08934137596300       -1.22468900423316
C            6.31844636325391        1.29271296033518       -0.76218798839106
C            6.99724370049095        0.28016487466380       -0.09369490712447
O            8.24252040703213        0.35973890714438        0.39644150908419
C            8.98142999589278        1.54895193609633        0.22988397795826
C            6.34416764842110       -0.97283812061351        0.10691239486644
O            7.07536961046342       -1.89566758516265        0.75289352244296
C            6.53346517782884       -3.17371246842906        0.99189818667772
C            5.05086039293722       -1.14851434363561       -0.36502250437821
C            0.10112364305451       -1.44639127974695       -0.94732383244511
C           -4.42409639552154        2.93726332259665        0.41428428788922
C           -5.17250553657800        2.67843879692948        1.72104290852747
C           -4.01068490806481        4.40461151178919        0.33219851611097
H           -4.86140079598267        0.66032252038053       -1.38075334939248
H           -6.94746848190249       -0.24009988090044       -2.03712139017014
H           -7.05263045217060       -1.75060068139650       -2.97314091345659
H           -5.61382830230679       -0.71504567154432       -3.13080911023398
H           -4.95740298751910       -3.96925563594586        2.47762636279081
H           -5.11862818169288       -5.24442431058965        1.24523048256886
H           -3.53836446445600       -4.46779985435743        1.51236982600498
H           -3.34072287682924       -2.23605971055509        2.30706643018787
H           -2.61911182875783        0.07937007028692        2.20897248788450
H           -3.16725273185539        2.33341079173928       -1.83607944391637
H           -1.86343028533844        3.12873762088840       -0.95497252906554
H           -2.05172758453419        0.13823112611745       -1.52250757394530
H           -1.06191366653581        1.30009141956333       -2.40955234624120
H           -0.75392019916609        0.59068593371347        0.54087604354223
H            0.17425834238380        1.83721775417530       -0.30972819826389
H            2.15458168866936       -0.61210794577583        0.46174493832202
H            2.14559559186861        1.06325135005370       -0.11017800052291
H            2.78351085685607        0.30542289877513       -2.38403220022807
H            2.83756666712861       -1.36963682865579       -1.82337633087111
H            4.52417585714406        1.88748106548737       -1.74603838173225
H            6.79320062932774        2.24574005097485       -0.92902319822017
H            8.49088525775167        2.39619471704497        0.71784771207431
H            9.13728699245404        1.77583067573555       -0.82882762999787
H            9.94260445038590        1.36445863454050        0.70594146247847
H            7.31907959282519       -3.73424639120726        1.49497735314197
H            5.65436834872227       -3.11934759552776        1.64118097710294
H            6.26970817461581       -3.67844050681120        0.05773826447439
H            4.55045007527828       -2.09338133623589       -0.22132660136475
H           -0.52205001625735       -1.56944250012689       -1.83376552494548
H           -0.50630572234832       -1.68548332479800       -0.06475942787903
H            0.91948885028156       -2.15834018245182       -1.00830706061193
H           -5.09694244345737        2.71866023731967       -0.42158356992530
H           -4.52805272256566        2.87468844147533        2.57569481959353
H           -5.52030815814426        1.64897770616628        1.77952807196804
H           -6.03628665651128        3.33496129705714        1.78902215622867
H           -3.28279281650113        4.64488401607728        1.10425027799304
H           -3.58752668448416        4.65138894071309       -0.63812146269100
H           -4.88399775838289        5.03444671501434        0.48413523612594
H           -0.09821573740289        3.69708566038374        4.59251146844905

          :  Hamiltonian                  GFN2-xTB          :
         :: total energy             -99.324145050565 Eh    ::
         :: gradient norm              0.002515703944 Eh/a0 ::
         :: HOMO-LUMO gap              0.680793524272 eV    ::
         :: SCC energy              -100.721914402434 Eh    ::
         :: -> dispersion             -0.072758962760 Eh    ::
         :: repulsion energy           1.396610524450 Eh    ::

    * Orbital Energies and Occupations

         #    Occupation            Energy/Eh            Energy/eV
      -------------------------------------------------------------
         1        2.0000           -0.8210073             -22.3407
       ...           ...                  ...                  ...
        78        1.9965           -0.5375055             -14.6263
        79        1.9956           -0.5338731             -14.5274
        80        1.9951           -0.5320481             -14.4778
        81        1.9931           -0.5265040             -14.3269
        82        1.9928           -0.5260110             -14.3135
        83        1.9904           -0.5214016             -14.1881
        84        1.9890           -0.5192477             -14.1295
        85        1.9742           -0.5056011             -13.7581
        86        1.9626           -0.4995910             -13.5946
        87        1.9558           -0.4969097             -13.5216
        88        1.7799           -0.4699962             -12.7892
        89        1.7459           -0.4674118             -12.7189
        90        1.6546           -0.4617038             -12.5636 (HOMO)
        91        0.9933           -0.4366851             -11.8828 (LUMO)
        92        0.0018           -0.3257531              -8.8642
        93        0.0015           -0.3227728              -8.7831
        94        0.0013           -0.3207207              -8.7273
        95        0.0012           -0.3188915              -8.6775
        96        0.0003           -0.2968376              -8.0774
        97        0.0003           -0.2953696              -8.0374
        98        0.0000           -0.2002785              -5.4499
        99        0.0000           -0.1966198              -5.3503
       100                         -0.1091776              -2.9709
       101                         -0.0737015              -2.0055
       ...                                ...                  ...
       171                          1.0478858              28.5144
      -------------------------------------------------------------
                  HL-Gap            0.0250187 Eh            0.6808 eV

     #   Z          covCN         q      C6AA      α(0)
     1   7 N        0.911    -0.231    26.067     7.384
     2   6 C        1.924     0.124    28.056     8.554
     3   6 C        3.908     0.018    20.219     6.391
     4   6 C        2.977     0.014    27.687     8.631
     5   6 C        2.919    -0.074    29.857     8.960
     6   6 C        2.862     0.134    25.062     8.206
     7   8 O        1.706    -0.218    17.627     5.668
     8   6 C        3.644     0.025    20.493     6.507
     9   6 C        2.864     0.135    25.055     8.205
    10   8 O        1.706    -0.215    17.575     5.660
    11   6 C        3.645     0.024    20.511     6.509
    12   6 C        2.913    -0.068    29.690     8.935
    13   6 C        2.920    -0.044    29.092     8.845
    14   6 C        3.814    -0.057    21.594     6.614
    15   6 C        3.801    -0.067    21.792     6.646
    16   6 C        3.750    -0.005    20.727     6.493
    17   7 N        2.728    -0.092    23.043     7.130
    18   6 C        3.749    -0.002    20.670     6.484
    19   6 C        3.808    -0.073    21.889     6.660
    20   6 C        2.967     0.014    27.702     8.633
    21   6 C        2.921    -0.041    29.012     8.833
    22   6 C        2.912    -0.063    29.567     8.916
    23   6 C        2.864     0.138    24.980     8.192
    24   8 O        1.706    -0.207    17.441     5.639
    25   6 C        3.645     0.021    20.561     6.517
    26   6 C        2.861     0.138    24.982     8.193
    27   8 O        1.706    -0.211    17.503     5.649
    28   6 C        3.644     0.023    20.525     6.512
    29   6 C        2.918    -0.074    29.854     8.960
    30   6 C        3.702    -0.052    21.662     6.655
    31   6 C        3.861    -0.004    20.616     6.457
    32   6 C        3.755    -0.109    22.649     6.786
    33   6 C        3.755    -0.113    22.714     6.796
    34   1 H        0.926     0.057     2.235     2.338
    35   1 H        0.924     0.058     2.224     2.332
    36   1 H        0.925     0.086     1.923     2.169
    37   1 H        0.924     0.055     2.263     2.352
    38   1 H        0.924     0.061     2.189     2.314
    39   1 H        0.925     0.086     1.921     2.167
    40   1 H        0.924     0.055     2.257     2.349
    41   1 H        0.926     0.060     2.205     2.322
    42   1 H        0.926     0.054     2.265     2.353
    43   1 H        0.924     0.053     2.282     2.362
    44   1 H        0.924     0.054     2.265     2.354
    45   1 H        0.924     0.046     2.375     2.410
    46   1 H        0.924     0.057     2.232     2.336
    47   1 H        0.923     0.044     2.400     2.423
    48   1 H        0.924     0.057     2.229     2.335
    49   1 H        0.923     0.046     2.370     2.408
    50   1 H        0.924     0.058     2.225     2.333
    51   1 H        0.925     0.065     2.136     2.286
    52   1 H        0.924     0.058     2.227     2.334
    53   1 H        0.926     0.059     2.208     2.324
    54   1 H        0.926     0.066     2.134     2.284
    55   1 H        0.924     0.062     2.175     2.306
    56   1 H        0.924     0.063     2.166     2.301
    57   1 H        0.925     0.088     1.899     2.155
    58   1 H        0.925     0.087     1.909     2.160
    59   1 H        0.924     0.057     2.233     2.337
    60   1 H        0.924     0.059     2.212     2.326
    61   1 H        0.926     0.056     2.247     2.344
    62   1 H        0.924     0.062     2.172     2.305
    63   1 H        0.924     0.045     2.386     2.416
    64   1 H        0.925     0.062     2.172     2.305
    65   1 H        0.924     0.040     2.442     2.444
    66   1 H        0.925     0.051     2.314     2.379
    67   1 H        0.925     0.038     2.480     2.463
    68   1 H        0.925     0.054     2.265     2.353
    69   1 H        0.925     0.051     2.310     2.377
    70   1 H        0.925     0.043     2.407     2.426
    71   1 H        0.925     0.057     2.239     2.340
    72   1 H        0.000     0.005     7.425     4.983

Wiberg/Mayer (AO) data.
largest (>0.10) Wiberg bond orders for each atom

     #   Z sym  total        # sym  WBO       # sym  WBO       # sym  WBO
 ---------------------------------------------------------------------------
     1   7 N    2.996 --     2 C    2.832
     2   6 C    3.932 --     1 N    2.832     3 C    1.023
     3   6 C    3.975 --     2 C    1.023     4 C    0.970    14 C    0.941
                            31 C    0.920
     4   6 C    3.924 --    13 C    1.396     5 C    1.376     3 C    0.970
     5   6 C    3.949 --     6 C    1.389     4 C    1.376    34 H    0.958
     6   6 C    3.880 --     5 C    1.389     9 C    1.206     7 O    1.113
     7   8 O    2.250 --     6 C    1.113     8 C    0.975
     8   6 C    3.925 --    36 H    0.976     7 O    0.975    35 H    0.972
                            37 H    0.971
     9   6 C    3.875 --    12 C    1.377     6 C    1.206    10 O    1.118
    10   8 O    2.250 --     9 C    1.118    11 C    0.974
    11   6 C    3.924 --    39 H    0.976    10 O    0.974    40 H    0.971
                            38 H    0.971
    12   6 C    3.948 --    13 C    1.417     9 C    1.377    41 H    0.962
    13   6 C    3.929 --    12 C    1.417     4 C    1.396    42 H    0.961
    14   6 C    3.982 --    15 C    1.008    44 H    0.971    43 H    0.968
                             3 C    0.941
    15   6 C    3.978 --    14 C    1.008    16 C    0.994    46 H    0.971
                            45 H    0.969
    16   6 C    3.961 --    17 N    1.008    15 C    0.994    48 H    0.968
                            47 H    0.940
    17   7 N    3.093 --    30 C    1.018    18 C    1.011    16 C    1.008
    18   6 C    3.957 --    17 N    1.011    50 H    0.969    19 C    0.965
                            49 H    0.953
    19   6 C    3.970 --    20 C    1.016    51 H    0.969    52 H    0.966
                            18 C    0.965
    20   6 C    3.913 --    29 C    1.387    21 C    1.380    19 C    1.016
    21   6 C    3.915 --    22 C    1.431    20 C    1.380    53 H    0.966
    22   6 C    3.941 --    21 C    1.431    23 C    1.365    54 H    0.961
    23   6 C    3.859 --    22 C    1.365    26 C    1.199    24 O    1.128
    24   8 O    2.249 --    23 C    1.128    25 C    0.973
    25   6 C    3.919 --    57 H    0.976    24 O    0.973    56 H    0.970
                            55 H    0.970
    26   6 C    3.867 --    29 C    1.382    23 C    1.199    27 O    1.121
    27   8 O    2.250 --    26 C    1.121    28 C    0.975
    28   6 C    3.924 --    58 H    0.976    27 O    0.975    59 H    0.971
                            60 H    0.971
    29   6 C    3.943 --    20 C    1.387    26 C    1.382    61 H    0.961
    30   6 C    3.965 --    17 N    1.018    64 H    0.978    62 H    0.970
                            63 H    0.963
    31   6 C    3.973 --    33 C    1.009    32 C    1.008    65 H    0.959
                             3 C    0.920
    32   6 C    3.982 --    31 C    1.008    67 H    0.981    68 H    0.981
                            66 H    0.981
    33   6 C    3.982 --    31 C    1.009    70 H    0.981    69 H    0.980
                            71 H    0.979
    34   1 H    0.995 --     5 C    0.958
    35   1 H    0.990 --     8 C    0.972
    36   1 H    0.992 --     8 C    0.976
    37   1 H    0.990 --     8 C    0.971
    38   1 H    0.989 --    11 C    0.971
    39   1 H    0.992 --    11 C    0.976
    40   1 H    0.989 --    11 C    0.971
    41   1 H    0.994 --    12 C    0.962
    42   1 H    0.996 --    13 C    0.961
    43   1 H    0.994 --    14 C    0.968
    44   1 H    0.995 --    14 C    0.971
    45   1 H    0.996 --    15 C    0.969
    46   1 H    0.993 --    15 C    0.971
    47   1 H    0.967 --    16 C    0.940
    48   1 H    0.995 --    16 C    0.968
    49   1 H    0.972 --    18 C    0.953
    50   1 H    0.996 --    18 C    0.969
    51   1 H    0.992 --    19 C    0.969
    52   1 H    0.993 --    19 C    0.966
    53   1 H    0.995 --    21 C    0.966
    54   1 H    0.993 --    22 C    0.961
    55   1 H    0.987 --    25 C    0.970
    56   1 H    0.987 --    25 C    0.970
    57   1 H    0.991 --    25 C    0.976
    58   1 H    0.991 --    28 C    0.976
    59   1 H    0.988 --    28 C    0.971
    60   1 H    0.989 --    28 C    0.971
    61   1 H    0.995 --    29 C    0.961
    62   1 H    0.983 --    30 C    0.970
    63   1 H    0.975 --    30 C    0.963
    64   1 H    0.996 --    30 C    0.978
    65   1 H    0.993 --    31 C    0.959
    66   1 H    0.994 --    32 C    0.981
    67   1 H    0.996 --    32 C    0.981
    68   1 H    0.994 --    32 C    0.981
    69   1 H    0.994 --    33 C    0.980
    70   1 H    0.995 --    33 C    0.981
    71   1 H    0.993 --    33 C    0.979
    72   1 H    0.002
 ---------------------------------------------------------------------------

molecular dipole:
                 x           y           z       tot (Debye)
 q only:        0.995      -0.707      -1.025
   full:        0.643      -0.762      -1.124       3.820

           -------------------------------------------------
          | TOTAL ENERGY              -99.324145050565 Eh   |
          | GRADIENT NORM               0.002515703944 Eh/α |
          | HOMO-LUMO GAP               0.680793524272 eV   |
           -------------------------------------------------

 * finished run on 2024/04/06 at 11:11:49.146
