   * xtb version 6.6.1 (8d0f1dd) compiled by 'conda@1efc2f54142f' on 2023-08-01
          program call               : xtb struc.xyz --opt loose --input .xc1 --gfn2

   ID    Z sym.   atoms
    1    7 N      1, 17
    2    6 C      2-6, 8, 9, 11-16, 18-23, 25, 26, 28-33
    3    8 O      7, 10, 24, 27
    4    1 H      34-72
constraining bond 2 13 to    6.0000000 Å, actual value:    2.7703572 Å

          :  Hamiltonian                  GFN2-xTB          :
 * total energy  :   -97.5417151 Eh     change       -0.4035485E-08 Eh
 * total energy  :   -98.0265560 Eh     change       -0.4848409E+00 Eh
 * total energy  :   -98.3431567 Eh     change       -0.3166006E+00 Eh
 * total energy  :   -98.5519749 Eh     change       -0.2088183E+00 Eh
 * total energy  :   -98.7147930 Eh     change       -0.1628181E+00 Eh
 * total energy  :   -98.8689694 Eh     change       -0.1541764E+00 Eh
 * total energy  :   -99.0135801 Eh     change       -0.1446107E+00 Eh
 * total energy  :   -99.1276615 Eh     change       -0.1140814E+00 Eh
 * total energy  :   -99.2031555 Eh     change       -0.7549402E-01 Eh
 * total energy  :   -99.2408201 Eh     change       -0.3766462E-01 Eh
 * total energy  :   -99.3389911 Eh     change       -0.8998953E-04 Eh
 * total energy  :   -99.3391080 Eh     change       -0.1168625E-03 Eh
 * total energy  :   -99.3391738 Eh     change       -0.6580770E-04 Eh
 * total energy  :   -99.3392888 Eh     change       -0.1150333E-03 Eh
 * total energy  :   -99.3393648 Eh     change       -0.7597376E-04 Eh
 * total energy  :   -99.3394277 Eh     change       -0.6295616E-04 Eh
 * total energy  :   -99.3395082 Eh     change       -0.8043473E-04 Eh
 * total energy  :   -99.3395961 Eh     change       -0.8792240E-04 Eh
 * total energy  :   -99.3396335 Eh     change       -0.3743467E-04 Eh
   *** GEOMETRY OPTIMIZATION CONVERGED AFTER 109 ITERATIONS ***

 final structure:
================
72
 xtb: 6.6.1 (8d0f1dd)
N            0.10635418270542        4.92659276244540        1.38656746654296
C           -0.18688121957951        3.86532917415205        1.02654367875895
C           -3.40878578515790        1.64129494243920        0.14611709482082
C           -4.03259881994704        0.37902458987864        0.09361569533136
C           -4.05452569083739       -0.39844194663256       -1.09402219837169
C           -4.59340125958075       -1.66359015813652       -1.12467380249446
O           -4.69052703183546       -2.44988614339837       -2.21809324915531
C           -4.30399636913711       -1.93731257126979       -3.47101782780657
C           -5.10545115113144       -2.24348890189626        0.07585063339955
O           -5.54968369981750       -3.50304937076776       -0.03349527507760
C           -6.08633682452543       -4.15176728265431        1.09782139862334
C           -5.11887765607323       -1.47211748836179        1.23690963568401
C           -4.62377812468380       -0.18820498011453        1.24424914685936
C           -2.28549085880487        1.97169848763746       -0.77848364017540
C           -1.20448753590436        0.88157381116697       -0.85575593225380
C           -0.67410360974199        0.53919229522823        0.54670415872500
N            0.26278220602559       -0.54598254915551        0.60399787805588
C            1.66700173286162       -0.27468142601198        0.57641379746301
C            2.28412718864719       -0.11864543666825       -0.83719389363304
C            3.75912428534483        0.10996305540448       -0.72887379442539
C            4.30582752620964        1.37296843516535       -0.90424690367957
C            5.67015692072416        1.58117861753336       -0.77791135086405
C            6.51921881326513        0.53035031686903       -0.45658294679977
O            7.85369194207219        0.61725847282004       -0.30220855139371
C            8.48879088373440        1.85896478253123       -0.50107900578989
C            5.96782039041059       -0.76831529471082       -0.26396600501031
O            6.85847228527957       -1.72896118645476        0.05041355133035
C            6.40328160273801       -3.04141427608955        0.28010445558280
C            4.60212178293586       -0.95285133688053       -0.40785288027458
C           -0.17314792086252       -1.81943249355724        0.10862160216415
C           -3.84667962104407        2.66077604596199        1.15412671737767
C           -2.89252961025323        2.72487335384079        2.35610297385978
C           -3.98273728405175        4.05495135317662        0.52774552054436
H           -3.70982554409308        0.05412631278756       -2.00857519619124
H           -4.87630769227182       -1.04185305347947       -3.73194904803721
H           -4.52270266239227       -2.72542789401480       -4.18876447209292
H           -3.23333808860857       -1.70910252934352       -3.50063803010522
H           -6.97850837037693       -3.63792541570154        1.46873086932487
H           -6.35828302376019       -5.15032587110858        0.76074558421315
H           -5.34786948485969       -4.22784250025911        1.90175717687692
H           -5.52223996567833       -1.88080899834529        2.14928245886554
H           -4.63496612318504        0.36018382201516        2.17110569142967
H           -2.67135408617188        2.14461766196744       -1.78918160300639
H           -1.80910272071320        2.89439447454221       -0.45037319924106
H           -1.60353775530701       -0.02370501855778       -1.31020945159357
H           -0.39074580922952        1.24902396965284       -1.48175160608057
H           -1.53565965574935        0.26714003218564        1.16825480428753
H           -0.20462327267296        1.42290657904167        0.97906156417139
H            2.18242007843119       -1.09637852771933        1.08430758407202
H            1.85378309426160        0.64162926157091        1.14082956162251
H            1.81400764990059        0.72391316586712       -1.34339535151247
H            2.08710870670768       -1.02728253214279       -1.40830342193577
H            3.66612166985639        2.20666326298472       -1.15201282065239
H            6.06595149291667        2.57185315375041       -0.93120013093370
H            8.13246608191353        2.60977087047795        0.21116281082293
H            8.34117696618275        2.22426950027165       -1.52213776038222
H            9.54834546674109        1.67570557059544       -0.33267079709169
H            7.29039158335184       -3.61901960098257        0.53363997646734
H            5.69592407589659       -3.07931208564024        1.11466557176574
H            5.93827656909792       -3.46735943801462       -0.61479180701243
H            4.17469971001789       -1.93501044067501       -0.28057045853095
H           -0.11874763629829       -1.90102196898733       -0.98557855906349
H           -1.20659818711654       -1.98751179350581        0.41158624915862
H            0.45030258728153       -2.60592300728524        0.53536490223197
H           -4.83879176794558        2.37764355355079        1.51899294471837
H           -1.89565872217004        3.01739342354527        2.03419840896716
H           -2.82547099091417        1.76329300831800        2.85692841918557
H           -3.25534005931458        3.46104499756045        3.06873765631627
H           -3.01451608839063        4.48411352019874        0.28537881309249
H           -4.58331566590859        4.01161362609665       -0.37700136563461
H           -4.47629887924886        4.71765325481856        1.23370984379301
H            0.34459044679789        5.84314952285610        1.69548088241985

          :  Hamiltonian                  GFN2-xTB          :
         :: total energy             -99.339633540861 Eh    ::
         :: gradient norm              0.002808332041 Eh/a0 ::
         :: HOMO-LUMO gap              1.042668590662 eV    ::
         :: SCC energy              -100.746847071599 Eh    ::
         :: -> dispersion             -0.072167669198 Eh    ::
         :: repulsion energy           1.405977329310 Eh    ::

    * Orbital Energies and Occupations

         #    Occupation            Energy/Eh            Energy/eV
      -------------------------------------------------------------
         1        2.0000           -0.8144301             -22.1618
       ...           ...                  ...                  ...
        78        1.9982           -0.5303068             -14.4304
        79        1.9980           -0.5285366             -14.3822
        80        1.9977           -0.5264426             -14.3252
        81        1.9972           -0.5236606             -14.2495
        82        1.9964           -0.5195663             -14.1381
        83        1.9954           -0.5155283             -14.0282
        84        1.9936           -0.5103667             -13.8878
        85        1.9928           -0.5084976             -13.8369
        86        1.9842           -0.4958701             -13.4933
        87        1.9680           -0.4845634             -13.1856
        88        1.9176           -0.4691885             -12.7673
        89        1.8319           -0.4571900             -12.4408
        90        1.6844           -0.4458839             -12.1331 (HOMO)
        91        0.6438           -0.4075666             -11.0905 (LUMO)
        92        0.0025           -0.3138503              -8.5403
        93        0.0025           -0.3136848              -8.5358
        94        0.0024           -0.3131698              -8.5218
        95        0.0018           -0.3084775              -8.3941
        96        0.0015           -0.3054512              -8.3117
        97        0.0009           -0.2967733              -8.0756
        98        0.0000           -0.1875151              -5.1025
        99        0.0000           -0.1832923              -4.9876
       100                         -0.0906430              -2.4665
       101                         -0.0665057              -1.8097
       ...                                ...                  ...
       171                          0.9375235              25.5113
      -------------------------------------------------------------
                  HL-Gap            0.0383174 Eh            1.0427 eV

     #   Z          covCN         q      C6AA      α(0)
     1   7 N        1.771    -0.076    23.437     7.169
     2   6 C        0.910    -0.117    39.156    10.472
     3   6 C        2.957     0.020    27.552     8.609
     4   6 C        2.965     0.005    27.912     8.666
     5   6 C        2.918    -0.077    29.915     8.969
     6   6 C        2.858     0.132    25.107     8.213
     7   8 O        1.706    -0.233    17.859     5.706
     8   6 C        3.644     0.028    20.441     6.498
     9   6 C        2.864     0.138    24.992     8.195
    10   8 O        1.706    -0.212    17.522     5.652
    11   6 C        3.645     0.023    20.523     6.511
    12   6 C        2.909    -0.066    29.648     8.928
    13   6 C        2.921    -0.041    29.029     8.836
    14   6 C        3.806    -0.073    21.897     6.661
    15   6 C        3.800    -0.064    21.738     6.638
    16   6 C        3.746    -0.020    21.004     6.537
    17   7 N        2.726    -0.089    22.978     7.119
    18   6 C        3.747    -0.007    20.763     6.499
    19   6 C        3.806    -0.071    21.848     6.654
    20   6 C        2.968     0.008    27.836     8.654
    21   6 C        2.921    -0.045    29.114     8.848
    22   6 C        2.913    -0.066    29.646     8.928
    23   6 C        2.865     0.134    25.067     8.207
    24   8 O        1.706    -0.218    17.627     5.669
    25   6 C        3.645     0.025    20.494     6.506
    26   6 C        2.862     0.135    25.052     8.204
    27   8 O        1.706    -0.221    17.672     5.676
    28   6 C        3.645     0.026    20.468     6.502
    29   6 C        2.920    -0.077    29.930     8.971
    30   6 C        3.697    -0.049    21.626     6.652
    31   6 C        3.853    -0.015    20.806     6.488
    32   6 C        3.755    -0.112    22.693     6.792
    33   6 C        3.756    -0.111    22.673     6.789
    34   1 H        0.926     0.057     2.237     2.339
    35   1 H        0.924     0.053     2.281     2.362
    36   1 H        0.925     0.081     1.967     2.193
    37   1 H        0.924     0.046     2.368     2.406
    38   1 H        0.924     0.060     2.197     2.318
    39   1 H        0.925     0.085     1.933     2.174
    40   1 H        0.924     0.057     2.240     2.340
    41   1 H        0.926     0.059     2.212     2.326
    42   1 H        0.926     0.057     2.233     2.337
    43   1 H        0.924     0.070     2.087     2.259
    44   1 H        0.925     0.081     1.970     2.195
    45   1 H        0.925     0.044     2.390     2.418
    46   1 H        0.924     0.046     2.365     2.405
    47   1 H        0.924     0.053     2.285     2.364
    48   1 H        0.925     0.078     2.001     2.212
    49   1 H        0.924     0.054     2.272     2.357
    50   1 H        0.924     0.056     2.243     2.342
    51   1 H        0.925     0.050     2.314     2.379
    52   1 H        0.924     0.052     2.291     2.367
    53   1 H        0.926     0.050     2.324     2.384
    54   1 H        0.926     0.058     2.220     2.330
    55   1 H        0.924     0.056     2.251     2.347
    56   1 H        0.924     0.057     2.236     2.338
    57   1 H        0.925     0.083     1.949     2.183
    58   1 H        0.925     0.082     1.955     2.187
    59   1 H        0.924     0.052     2.296     2.370
    60   1 H        0.924     0.054     2.265     2.354
    61   1 H        0.926     0.052     2.301     2.372
    62   1 H        0.923     0.044     2.391     2.418
    63   1 H        0.925     0.056     2.245     2.343
    64   1 H        0.924     0.059     2.206     2.323
    65   1 H        0.924     0.052     2.300     2.372
    66   1 H        0.925     0.062     2.178     2.308
    67   1 H        0.925     0.040     2.453     2.449
    68   1 H        0.925     0.053     2.287     2.365
    69   1 H        0.925     0.046     2.370     2.407
    70   1 H        0.925     0.045     2.388     2.417
    71   1 H        0.925     0.053     2.283     2.363
    72   1 H        0.861     0.195     1.130     1.665

Wiberg/Mayer (AO) data.
largest (>0.10) Wiberg bond orders for each atom

     #   Z sym  total        # sym  WBO       # sym  WBO       # sym  WBO
 ---------------------------------------------------------------------------
     1   7 N    3.642 --     2 C    2.710    72 H    0.912
     2   6 C    2.826 --     1 N    2.710
     3   6 C    3.536 --     4 C    1.312    14 C    1.047    31 C    1.029
     4   6 C    3.970 --     3 C    1.312    13 C    1.266     5 C    1.245
     5   6 C    3.884 --     6 C    1.456     4 C    1.245    34 H    0.958
     6   6 C    3.912 --     5 C    1.456     9 C    1.190     7 O    1.095
     7   8 O    2.252 --     6 C    1.095     8 C    0.979
     8   6 C    3.933 --     7 O    0.979    36 H    0.977    37 H    0.974
                            35 H    0.973
     9   6 C    3.817 --    12 C    1.340     6 C    1.190    10 O    1.130
    10   8 O    2.259 --     9 C    1.130    11 C    0.973
    11   6 C    3.926 --    39 H    0.977    10 O    0.973    40 H    0.972
                            38 H    0.972
    12   6 C    3.967 --    13 C    1.485     9 C    1.340    41 H    0.962
    13   6 C    3.854 --    12 C    1.485     4 C    1.266    42 H    0.963
    14   6 C    3.979 --     3 C    1.047    15 C    0.982    44 H    0.953
                            43 H    0.929
    15   6 C    3.948 --    14 C    0.982    16 C    0.977    46 H    0.973
                            45 H    0.968
    16   6 C    3.958 --    17 N    1.015    15 C    0.977    48 H    0.958
                            47 H    0.953
    17   7 N    3.137 --    18 C    1.025    30 C    1.023    16 C    1.015
    18   6 C    3.962 --    17 N    1.025    50 H    0.968    49 H    0.963
                            19 C    0.948
    19   6 C    3.959 --    20 C    1.019    51 H    0.971    52 H    0.965
                            18 C    0.948
    20   6 C    3.930 --    21 C    1.395    29 C    1.375    19 C    1.019
    21   6 C    3.929 --    22 C    1.421    20 C    1.395    53 H    0.967
    22   6 C    3.951 --    21 C    1.421    23 C    1.377    54 H    0.963
    23   6 C    3.874 --    22 C    1.377    26 C    1.211    24 O    1.112
    24   8 O    2.246 --    23 C    1.112    25 C    0.976
    25   6 C    3.927 --    57 H    0.977    24 O    0.976    56 H    0.972
                            55 H    0.972
    26   6 C    3.884 --    29 C    1.395    23 C    1.211    27 O    1.107
    27   8 O    2.248 --    26 C    1.107    28 C    0.978
    28   6 C    3.930 --    27 O    0.978    58 H    0.977    59 H    0.973
                            60 H    0.972
    29   6 C    3.950 --    26 C    1.395    20 C    1.375    61 H    0.961
    30   6 C    3.969 --    17 N    1.023    63 H    0.977    64 H    0.975
                            62 H    0.959
    31   6 C    3.984 --     3 C    1.029    33 C    0.986    32 C    0.969
                            65 H    0.958
    32   6 C    3.957 --    67 H    0.983    68 H    0.980    31 C    0.969
                            66 H    0.958
    33   6 C    3.974 --    31 C    0.986    70 H    0.986    71 H    0.982
                            69 H    0.981
    34   1 H    0.995 --     5 C    0.958
    35   1 H    0.994 --     8 C    0.973
    36   1 H    0.993 --     8 C    0.977
    37   1 H    0.994 --     8 C    0.974
    38   1 H    0.990 --    11 C    0.972
    39   1 H    0.992 --    11 C    0.977
    40   1 H    0.991 --    11 C    0.972
    41   1 H    0.994 --    12 C    0.962
    42   1 H    0.996 --    13 C    0.963
    43   1 H    0.965 --    14 C    0.929
    44   1 H    0.991 --    14 C    0.953
    45   1 H    0.997 --    15 C    0.968
    46   1 H    0.996 --    15 C    0.973
    47   1 H    0.983 --    16 C    0.953
    48   1 H    0.992 --    16 C    0.958
    49   1 H    0.988 --    18 C    0.963
    50   1 H    0.994 --    18 C    0.968
    51   1 H    0.996 --    19 C    0.971
    52   1 H    0.994 --    19 C    0.965
    53   1 H    0.997 --    21 C    0.967
    54   1 H    0.995 --    22 C    0.963
    55   1 H    0.990 --    25 C    0.972
    56   1 H    0.990 --    25 C    0.972
    57   1 H    0.992 --    25 C    0.977
    58   1 H    0.992 --    28 C    0.977
    59   1 H    0.992 --    28 C    0.973
    60   1 H    0.991 --    28 C    0.972
    61   1 H    0.996 --    29 C    0.961
    62   1 H    0.972 --    30 C    0.959
    63   1 H    0.993 --    30 C    0.977
    64   1 H    0.990 --    30 C    0.975
    65   1 H    0.992 --    31 C    0.958
    66   1 H    0.995 --    32 C    0.958
    67   1 H    0.998 --    32 C    0.983
    68   1 H    0.993 --    32 C    0.980
    69   1 H    0.997 --    33 C    0.981
    70   1 H    0.997 --    33 C    0.986
    71   1 H    0.994 --    33 C    0.982
    72   1 H    0.960 --     1 N    0.912
 ---------------------------------------------------------------------------

molecular dipole:
                 x           y           z       tot (Debye)
 q only:       -0.318       0.581       0.228
   full:       -0.340       1.141       0.275       3.107

           -------------------------------------------------
          | TOTAL ENERGY              -99.339633540861 Eh   |
          | GRADIENT NORM               0.002808332041 Eh/α |
          | HOMO-LUMO GAP               1.042668590662 eV   |
           -------------------------------------------------

 * finished run on 2024/04/06 at 11:11:48.303
