   * xtb version 6.6.1 (8d0f1dd) compiled by 'conda@1efc2f54142f' on 2023-08-01
          program call               : xtb struc.xyz --opt loose --input .xc1 --gfn2

   ID    Z sym.   atoms
    1    6 C      1, 3, 5-7, 10, 11, 14
    2    7 N      2, 4, 9, 13
    3    8 O      8, 12
    4    1 H      15-25
constraining bond 1 3 to    5.0000000 Å, actual value:    2.4701363 Å

          :  Hamiltonian                  GFN2-xTB          :
 * total energy  :   -30.8200778 Eh     change       -0.6650680E-10 Eh
 * total energy  :   -35.0164585 Eh     change       -0.4196381E+01 Eh
 * total energy  :   -38.3467334 Eh     change       -0.3330275E+01 Eh
 * total energy  :   -40.4889891 Eh     change       -0.2142256E+01 Eh
 * total energy  :   -41.4893959 Eh     change       -0.1000407E+01 Eh
 * total energy  :   -41.6940347 Eh     change       -0.2046388E+00 Eh
 * total energy  :   -41.7141106 Eh     change       -0.2007592E-01 Eh
 * total energy  :   -41.7467978 Eh     change       -0.3268724E-01 Eh
 * total energy  :   -41.7993057 Eh     change       -0.5250787E-01 Eh
 * total energy  :   -41.8478768 Eh     change       -0.4857105E-01 Eh
 * total energy  :   -42.0218736 Eh     change       -0.3082751E-01 Eh
 * total energy  :   -42.0492796 Eh     change       -0.2740596E-01 Eh
 * total energy  :   -42.0557293 Eh     change       -0.6449781E-02 Eh
 * total energy  :   -42.0591519 Eh     change       -0.3422551E-02 Eh
 * total energy  :   -42.0603234 Eh     change       -0.1171559E-02 Eh
 * total energy  :   -42.0609569 Eh     change       -0.6334040E-03 Eh
 * total energy  :   -42.0612696 Eh     change       -0.3127495E-03 Eh
 * total energy  :   -42.0613755 Eh     change       -0.1058623E-03 Eh
 * total energy  :   -42.0614139 Eh     change       -0.3846980E-04 Eh
   *** GEOMETRY OPTIMIZATION CONVERGED AFTER 30 ITERATIONS ***

 final structure:
================
25
 xtb: 6.6.1 (8d0f1dd)
C            3.07157765624014        1.82604542175609        0.03596646274886
N            2.44046830129987        0.54843876019639        0.00455348811197
C            2.31234815339793       -3.10118228416427       -0.06156545331255
N            1.22321942457882       -2.42187039901380       -0.01794661360044
C            0.63330221639859       -1.12229843621778       -0.00788490093667
C            1.19166208756436        0.21054990094903       -0.00026563487957
C            0.18201618384212        1.36126342082500       -0.00570047197761
O            0.53733598860445        2.51870584926166       -0.01410434812929
N           -1.14164320890157        1.05569806983837       -0.00264877308099
C           -2.12131827843988        2.13691275030682       -0.00308618161783
C           -1.66671068402910       -0.21183935836027        0.00774640342648
O           -2.85490133626979       -0.39843628837305        0.01954236774546
N           -0.74761703870440       -1.26370035090500        0.00199833317473
C           -1.41178465035653       -2.56789995725710        0.00331497049184
H            3.51153445013194        1.96056266967968        1.02828930388499
H            3.88170749717361        1.79496929683391       -0.69604083669063
H            2.39010306367201        2.65625806612539       -0.18061231912851
H            3.29443707653827       -2.64331099602327       -0.09620529290968
H           -1.59399653150163        3.08682369220435        0.00588948080372
H           -2.74639328155527        2.05740879861382       -0.89199728017636
H           -2.75841767353706        2.04631167184903        0.87610850976037
H           -1.20038857151756       -3.14211885814190        0.90953290503876
H           -1.20970013722489       -3.13833947763401       -0.90710153817118
H           -2.48592701481038       -2.35943434181838        0.01038709023154
H            0.42951782150596       -3.07127907893068        0.01300194709256

          :  Hamiltonian                  GFN2-xTB          :
         :: total energy             -42.061413935231 Eh    ::
         :: gradient norm              0.003166021269 Eh/a0 ::
         :: HOMO-LUMO gap              0.180509850144 eV    ::
         :: SCC energy               -42.556434342675 Eh    ::
         :: -> dispersion             -0.021715986526 Eh    ::
         :: repulsion energy           0.494565677701 Eh    ::

    * Orbital Energies and Occupations

         #    Occupation            Energy/Eh            Energy/eV
      -------------------------------------------------------------
         1        2.0000           -0.8953345             -24.3633
       ...           ...                  ...                  ...
        25        1.9999           -0.6731018             -18.3160
        26        1.9998           -0.6630883             -18.0436
        27        1.9995           -0.6465499             -17.5935
        28        1.9994           -0.6435329             -17.5114
        29        1.9989           -0.6343260             -17.2609
        30        1.9986           -0.6311409             -17.1742
        31        1.9974           -0.6212902             -16.9062
        32        1.9946           -0.6095934             -16.5879
        33        1.9914           -0.6021688             -16.3858
        34        1.9809           -0.5894526             -16.0398
        35        1.9713           -0.5828735             -15.8608
        36        1.6135           -0.5385513             -14.6547
        37        1.3070           -0.5259698             -14.3124 (HOMO)
        38        1.1074           -0.5193362             -14.1319 (LUMO)
        39        0.0382           -0.4535745             -12.3424
        40        0.0019           -0.4059585             -11.0467
        41        0.0005           -0.3843411             -10.4585
        42        0.0000           -0.3058933              -8.3238
        43                         -0.2258891              -6.1468
        44                         -0.2018679              -5.4931
        45                         -0.1629329              -4.4336
        46                         -0.1126964              -3.0666
        47                         -0.0991433              -2.6978
        48                         -0.0723385              -1.9684
       ...                                ...                  ...
        67                          0.5241961              14.2641
      -------------------------------------------------------------
                  HL-Gap            0.0066336 Eh            0.1805 eV

     #   Z          covCN         q      C6AA      α(0)
     1   6 C        3.686    -0.060    21.861     6.693
     2   7 N        1.827    -0.115    24.268     7.300
     3   6 C        1.837    -0.057    32.696     9.238
     4   7 N        2.692    -0.012    21.492     6.885
     5   6 C        2.812     0.082    26.150     8.378
     6   6 C        2.875     0.059    26.667     8.466
     7   6 C        2.771     0.267    22.501     7.769
     8   8 O        0.860    -0.326    20.260     6.035
     9   7 N        2.740    -0.059    22.388     7.027
    10   6 C        3.710    -0.063    21.859     6.682
    11   6 C        2.735     0.318    21.591     7.608
    12   8 O        0.860    -0.357    20.834     6.120
    13   7 N        2.749    -0.056    22.329     7.018
    14   6 C        3.707    -0.091    22.396     6.765
    15   1 H        0.924     0.127     1.558     1.952
    16   1 H        0.924     0.125     1.575     1.962
    17   1 H        0.924     0.155     1.359     1.823
    18   1 H        0.925     0.123     1.593     1.974
    19   1 H        0.925     0.115     1.652     2.010
    20   1 H        0.925     0.107     1.719     2.050
    21   1 H        0.925     0.108     1.715     2.048
    22   1 H        0.924     0.098     1.803     2.100
    23   1 H        0.924     0.098     1.801     2.098
    24   1 H        0.924     0.150     1.392     1.845
    25   1 H        0.860     0.264     0.831     1.428

Wiberg/Mayer (AO) data.
largest (>0.10) Wiberg bond orders for each atom

     #   Z sym  total        # sym  WBO       # sym  WBO       # sym  WBO
 ---------------------------------------------------------------------------
     1   6 C    3.840 --     2 N    1.093    16 H    0.921    15 H    0.911
                            17 H    0.857
     2   7 N    2.811 --     6 C    1.580     1 C    1.093
     3   6 C    2.693 --     4 N    1.653    18 H    0.917
     4   7 N    3.641 --     3 C    1.653     5 C    1.062    25 H    0.830
     5   6 C    3.632 --     6 C    1.207    13 N    1.186     4 N    1.062
     6   6 C    3.912 --     2 N    1.580     5 C    1.207     7 C    0.917
     7   6 C    3.888 --     8 O    1.686     9 N    1.181     6 C    0.917
     8   8 O    2.020 --     7 C    1.686     9 N    0.134
     9   7 N    3.552 --     7 C    1.181    11 C    1.105    10 C    0.958
                             8 O    0.134    12 O    0.115
    10   6 C    3.891 --    19 H    0.967    21 H    0.960    20 H    0.959
                             9 N    0.958
    11   6 C    3.940 --    12 O    1.680     9 N    1.105    13 N    1.072
    12   8 O    2.002 --    11 C    1.680     9 N    0.115    13 N    0.113
    13   7 N    3.471 --     5 C    1.186    11 C    1.072    14 C    0.977
                            12 O    0.113
    14   6 C    3.911 --    13 N    0.977    23 H    0.953    22 H    0.951
                            24 H    0.937
    15   1 H    0.946 --     1 C    0.911
    16   1 H    0.947 --     1 C    0.921
    17   1 H    0.904 --     1 C    0.857
    18   1 H    0.934 --     3 C    0.917
    19   1 H    0.984 --    10 C    0.967
    20   1 H    0.980 --    10 C    0.959
    21   1 H    0.980 --    10 C    0.960
    22   1 H    0.980 --    14 C    0.951
    23   1 H    0.981 --    14 C    0.953
    24   1 H    0.974 --    14 C    0.937
    25   1 H    0.907 --     4 N    0.830
 ---------------------------------------------------------------------------

molecular dipole:
                 x           y           z       tot (Debye)
 q only:        1.283      -1.411       0.014
   full:        1.309      -1.219       0.024       4.546

           -------------------------------------------------
          | TOTAL ENERGY              -42.061413935231 Eh   |
          | GRADIENT NORM               0.003166021269 Eh/α |
          | HOMO-LUMO GAP               0.180509850144 eV   |
           -------------------------------------------------

 * finished run on 2024/06/05 at 19:57:49.291
