   * xtb version 6.6.1 (8d0f1dd) compiled by 'conda@1efc2f54142f' on 2023-08-01
          program call               : xtb struc.xyz --opt loose --input .xc1 --gfn2

   ID    Z sym.   atoms
    1    6 C      1, 3, 5-7, 10, 11, 14
    2    7 N      2, 4, 9, 13
    3    8 O      8, 12
    4    1 H      15-25
constraining bond 12 14 to    5.7600000 Å, actual value:    2.7358220 Å

          :  Hamiltonian                  GFN2-xTB          :
 * total energy  :   -25.9180022 Eh     change       -0.6650680E-10 Eh
 * total energy  :   -31.4310977 Eh     change       -0.5513095E+01 Eh
 * total energy  :   -36.0052067 Eh     change       -0.4574109E+01 Eh
 * total energy  :   -39.1302179 Eh     change       -0.3125011E+01 Eh
 * total energy  :   -40.9152507 Eh     change       -0.1785033E+01 Eh
 * total energy  :   -41.5631863 Eh     change       -0.6479357E+00 Eh
 * total energy  :   -41.6484913 Eh     change       -0.8530496E-01 Eh
 * total energy  :   -41.6562040 Eh     change       -0.7712730E-02 Eh
 * total energy  :   -41.6776355 Eh     change       -0.2143151E-01 Eh
 * total energy  :   -41.6819182 Eh     change       -0.4282709E-02 Eh
 * total energy  :   -42.1490050 Eh     change       -0.1279963E-02 Eh
 * total energy  :   -42.1505230 Eh     change       -0.1518015E-02 Eh
 * total energy  :   -42.1514946 Eh     change       -0.9716233E-03 Eh
 * total energy  :   -42.1523366 Eh     change       -0.8420040E-03 Eh
 * total energy  :   -42.1526853 Eh     change       -0.3487391E-03 Eh
 * total energy  :   -42.1530112 Eh     change       -0.3258694E-03 Eh
 * total energy  :   -42.1532118 Eh     change       -0.2006205E-03 Eh
 * total energy  :   -42.1532997 Eh     change       -0.8781655E-04 Eh
 * total energy  :   -42.1533453 Eh     change       -0.4565345E-04 Eh
   *** GEOMETRY OPTIMIZATION CONVERGED AFTER 74 ITERATIONS ***

 final structure:
================
25
 xtb: 6.6.1 (8d0f1dd)
C            3.17284109620230        1.08558128351147       -0.00799719674951
N            2.03419388189823        0.21568164206427       -0.00536785779577
C            2.03992921429554       -1.14879887547728       -0.00789104360985
N            0.84129359526414       -1.66234685534249        0.00643682838886
C           -0.03252888138687       -0.62342135443150        0.01982054785815
C            0.73384083676530        0.58270511477869        0.01292995467779
C            0.07140410807447        1.86805241938111        0.00506286914072
O            0.64516418212520        2.93963556694245       -0.01781876193539
N           -1.30657861632861        1.74933039636337        0.02290708088307
C           -2.09884167997651        2.95434458962816        0.01224330929470
C           -2.04283648867761        0.52070158049226        0.03659359743856
O           -3.24410935886683        0.57467444185472        0.04734010675710
N           -1.33382185412482       -0.63497770263738        0.03425976335940
C           -0.54964109235283       -4.51581726373349       -0.02262652743588
H            3.72064017605565        0.99460762010542        0.93309980508174
H            3.84653739201138        0.82178995514327       -0.82493303516770
H            2.83713190649667        2.11640151521767       -0.12572951973682
H            2.94043313965515       -1.73384360981522       -0.02115736791788
H           -1.42658672539242        3.81235174776402        0.03195058934338
H           -2.72614738179855        2.98491977221197       -0.88299945900815
H           -2.76797335841068        2.97098695107389        0.87657734527089
H           -0.27236601899944       -5.04999878511290        0.88224647454033
H           -0.21805732052242       -5.07727127220333       -0.89240566169897
H           -1.63002988999341       -4.39614109827103       -0.05641073583738
H           -0.07345934791640       -3.53090923791004       -0.02495948722941

          :  Hamiltonian                  GFN2-xTB          :
         :: total energy             -42.153345310472 Eh    ::
         :: gradient norm              0.002744062454 Eh/a0 ::
         :: HOMO-LUMO gap              0.299499695245 eV    ::
         :: SCC energy               -42.677509272523 Eh    ::
         :: -> dispersion             -0.020547270484 Eh    ::
         :: repulsion energy           0.524147079739 Eh    ::

    * Orbital Energies and Occupations

         #    Occupation            Energy/Eh            Energy/eV
      -------------------------------------------------------------
         1        2.0000           -0.9041304             -24.6026
       ...           ...                  ...                  ...
        25        1.9980           -0.6593174             -17.9409
        26        1.9971           -0.6538667             -17.7926
        27        1.9910           -0.6356993             -17.2983
        28        1.9875           -0.6305468             -17.1581
        29        1.9771           -0.6208627             -16.8945
        30        1.9747           -0.6193141             -16.8524
        31        1.9438           -0.6064099             -16.5013
        32        1.9195           -0.6005083             -16.3407
        33        1.9154           -0.5996999             -16.3187
        34        1.8654           -0.5919150             -16.1068
        35        1.8211           -0.5870333             -15.9740
        36        1.8086           -0.5858515             -15.9418
        37        1.5442           -0.5696129             -15.5000 (HOMO)
        38        1.2566           -0.5586065             -15.2005 (LUMO)
        39        0.0018           -0.4395245             -11.9601
        40        0.0001           -0.3967856             -10.7971
        41        0.0000           -0.3791194             -10.3164
        42        0.0000           -0.2958423              -8.0503
        43                         -0.1948048              -5.3009
        44                         -0.1626172              -4.4250
        45                         -0.0928803              -2.5274
        46                         -0.0780927              -2.1250
        47                         -0.0399784              -1.0879
        48                         -0.0312614              -0.8507
       ...                                ...                  ...
        67                          0.5232825              14.2392
      -------------------------------------------------------------
                  HL-Gap            0.0110064 Eh            0.2995 eV

     #   Z          covCN         q      C6AA      α(0)
     1   6 C        3.689    -0.084    22.307     6.759
     2   7 N        2.815     0.063    20.139     6.665
     3   6 C        3.159     0.103    25.436     8.245
     4   7 N        1.899    -0.163    25.323     7.461
     5   6 C        3.134     0.171    24.133     8.041
     6   6 C        3.121     0.009    27.634     8.609
     7   6 C        2.764     0.276    22.325     7.738
     8   8 O        0.858    -0.324    20.226     6.030
     9   7 N        2.745    -0.063    22.469     7.040
    10   6 C        3.702    -0.061    21.832     6.681
    11   6 C        2.735     0.339    21.234     7.544
    12   8 O        0.860    -0.267    19.194     5.874
    13   7 N        1.834    -0.161    25.275     7.450
    14   6 C        3.699    -0.169    23.964     7.001
    15   1 H        0.924     0.118     1.630     1.997
    16   1 H        0.924     0.115     1.651     2.009
    17   1 H        0.924     0.131     1.526     1.932
    18   1 H        0.926     0.122     1.595     1.975
    19   1 H        0.925     0.129     1.541     1.941
    20   1 H        0.924     0.128     1.549     1.947
    21   1 H        0.924     0.129     1.544     1.943
    22   1 H        0.925     0.110     1.697     2.037
    23   1 H        0.925     0.110     1.699     2.038
    24   1 H        0.925     0.114     1.660     2.015
    25   1 H        0.924     0.124     1.585     1.969

Wiberg/Mayer (AO) data.
largest (>0.10) Wiberg bond orders for each atom

     #   Z sym  total        # sym  WBO       # sym  WBO       # sym  WBO
 ---------------------------------------------------------------------------
     1   6 C    3.892 --     2 N    0.996    17 H    0.956    16 H    0.949
                            15 H    0.941
     2   7 N    3.614 --     6 C    1.257     3 C    1.220     1 C    0.996
     3   6 C    3.844 --     4 N    1.535     2 N    1.220    18 H    0.951
     4   7 N    2.963 --     3 C    1.535     5 C    1.205
     5   6 C    3.887 --    13 N    1.409     4 N    1.205     6 C    1.138
     6   6 C    3.670 --     2 N    1.257     5 C    1.138     7 C    1.069
     7   6 C    3.935 --     8 O    1.639     9 N    1.137     6 C    1.069
     8   8 O    1.894 --     7 C    1.639     9 N    0.124
     9   7 N    3.414 --     7 C    1.137    11 C    1.003    10 C    0.997
                             8 O    0.124
    10   6 C    3.836 --     9 N    0.997    19 H    0.949    21 H    0.927
                            20 H    0.925
    11   6 C    3.928 --    12 O    1.692    13 N    1.162     9 N    1.003
    12   8 O    1.913 --    11 C    1.692
    13   7 N    2.771 --     5 C    1.409    11 C    1.162
    14   6 C    3.673 --    22 H    0.931    23 H    0.931    24 H    0.927
                            25 H    0.878
    15   1 H    0.968 --     1 C    0.941
    16   1 H    0.972 --     1 C    0.949
    17   1 H    0.975 --     1 C    0.956
    18   1 H    0.982 --     3 C    0.951
    19   1 H    0.967 --    10 C    0.949
    20   1 H    0.942 --    10 C    0.925
    21   1 H    0.944 --    10 C    0.927
    22   1 H    0.933 --    14 C    0.931
    23   1 H    0.933 --    14 C    0.931
    24   1 H    0.929 --    14 C    0.927
    25   1 H    0.916 --    14 C    0.878
 ---------------------------------------------------------------------------

molecular dipole:
                 x           y           z       tot (Debye)
 q only:        1.721      -0.722      -0.011
   full:        2.100      -0.512      -0.011       5.494

           -------------------------------------------------
          | TOTAL ENERGY              -42.153345310472 Eh   |
          | GRADIENT NORM               0.002744062454 Eh/α |
          | HOMO-LUMO GAP               0.299499695245 eV   |
           -------------------------------------------------

 * finished run on 2024/06/05 at 19:58:04.562
