   * xtb version 6.6.1 (8d0f1dd) compiled by 'conda@1efc2f54142f' on 2023-08-01
          program call               : xtb xtbopt.xyz --opt crude --input .xc2 --gfn2

   ID    Z sym.   atoms
    1    7 N      1, 17
    2    6 C      2-6, 8, 9, 11-16, 18-23, 25, 26, 28-33
    3    8 O      7, 10, 24, 27
    4    1 H      34-72

          :  Hamiltonian                  GFN2-xTB          :
 * total energy  :   -99.3380079 Eh     change       -0.2273737E-12 Eh
   *** GEOMETRY OPTIMIZATION CONVERGED AFTER 1 ITERATIONS ***

 final structure:
================
72
 xtb: 6.6.1 (8d0f1dd)
N           -1.99926381330270        2.72782938859509        2.57935741716255
C           -1.80438837148819        2.16277944574837        1.48309550392060
C           -2.89189195248306        1.97786132464162        0.45271885566133
C           -3.39732511327286        0.54392228309931        0.47015435190466
C           -4.39457656280224        0.17787986207057       -0.43627044152081
C           -4.89716863403753       -1.11148540478387       -0.47025895970624
O           -5.86255750369625       -1.54939780859607       -1.30296491031980
C           -6.49477605237934       -0.63201033830607       -2.16475497172864
C           -4.38371729040739       -2.08491124019714        0.43070968287549
O           -4.92439028230507       -3.31502826920369        0.32268919196620
C           -4.52932958528071       -4.31928830998164        1.22759316816141
C           -3.40148920046866       -1.70892167647638        1.33204012016562
C           -2.91371470470240       -0.40703656975925        1.35212334839914
C           -2.27071786671665        2.28477597329420       -0.93288074684835
C           -1.33363602257219        1.18639770219056       -1.46231244524804
C           -0.01501308031024        1.14400200645722       -0.79168439806986
N            0.62225536212780        0.04054414279360       -0.41967112963937
C            2.01683401477016        0.09141664245988       -0.04825326292155
C            2.92587026948234       -0.33296083813642       -1.21879607457455
C            4.37035769703080       -0.15917030770787       -0.84331232782938
C            5.01118728202167        1.05108262418857       -1.05362696103327
C            6.33820745760869        1.22389930948148       -0.69255937993370
C            7.05143958131567        0.18755846749742       -0.10760225236631
O            8.33988887214844        0.24030451377084        0.27723813864707
C            9.07309882788941        1.42472135540037        0.06363364132404
C            6.40041729424240       -1.05700635002107        0.11787543885737
O            7.16679988648513       -2.00862120447353        0.68686398361901
C            6.62201628764819       -3.28553116906739        0.91944265817409
C            5.07255797786942       -1.20555978931326       -0.25010270957858
C            0.01552412370234       -1.26513040135427       -0.51822738946436
C           -4.04544638818712        2.92521894363141        0.78155004225678
C           -4.94089654085757        2.49365241572827        1.89809290500758
C           -4.22331760152825        4.08847986507318        0.16939692380373
H           -4.79461264714682        0.92706473370013       -1.09964049970129
H           -6.96786938910028        0.18092738326962       -1.60577680284191
H           -7.25837564601280       -1.20343453244778       -2.68857252192055
H           -5.79221718700037       -0.21464138293711       -2.89314789502568
H           -4.74097165828389       -4.03271707846318        2.26202949811247
H           -5.12077363596680       -5.19492068858882        0.96761619992999
H           -3.46572502898716       -4.55744499858846        1.12443401063188
H           -3.01185154362370       -2.42207699646459        2.04026969989541
H           -2.16850028461787       -0.14282154130704        2.08667649172886
H           -3.07971437267542        2.40749535462877       -1.65179285725542
H           -1.72267982338859        3.22656697011547       -0.87678499322079
H           -1.83961346527976        0.22346776531467       -1.42187254764705
H           -1.14748965234694        1.41784262106415       -2.52000474972235
H           -0.82728152947919        1.76965975622602        1.14279625497884
H            0.54427464272814        2.06607995009061       -0.73158920487547
H            2.18733148417022       -0.56941636638765        0.80555523633805
H            2.27576896807021        1.10936588445959        0.24967929174236
H            2.69109130859848        0.28925784690072       -2.08440031149403
H            2.72723864938823       -1.37376046103294       -1.47701168661297
H            4.48162111114633        1.86989893362859       -1.51653174430041
H            6.81215069679379        2.17388192046718       -0.87725653936129
H            8.64579916455200        2.26590558567604        0.61780487703475
H            9.12622082163978        1.67592616588917       -0.99986830165734
H           10.07458276745764        1.21891566280633        0.43640685614261
H            7.42796589291592       -3.87130187873496        1.35701559763513
H            5.78425135558363       -3.24252185776877        1.62276461326287
H            6.29580731948811       -3.75835182273208       -0.01199522228280
H            4.57259988502366       -2.14831112197424       -0.09163498019100
H           -0.09791192077964       -1.57246213017221       -1.56042224633414
H           -0.96826878930565       -1.26425065728835       -0.04401035217514
H            0.64474251739139       -1.99086085834173       -0.00905609676672
H           -6.44778595362652        2.90458315968350       -1.93901746595695
H           -4.35440045123515        2.42426980205914        2.81205105988730
H           -5.37506909410503        1.51437554178526        1.70773492771173
H           -5.73756491224961        3.21403263607106        2.04662500427992
H           -3.59148394178723        4.46189089053908       -0.61614200765634
H           -5.93908848494936        3.17929090733763       -1.41151266403448
H           -5.02911987255956        4.74154582747575        0.46004484047494
H           -1.20940007100863        2.83092200779145        3.20850506270543

          :  Hamiltonian                  GFN2-xTB          :
         :: total energy             -99.338007850167 Eh    ::
         :: gradient norm              0.002342396369 Eh/a0 ::
         :: HOMO-LUMO gap              1.655310544751 eV    ::
         :: SCC energy              -100.760137170311 Eh    ::
         :: -> dispersion             -0.075440136151 Eh    ::
         :: repulsion energy           1.420888906233 Eh    ::

    * Orbital Energies and Occupations

         #    Occupation            Energy/Eh            Energy/eV
      -------------------------------------------------------------
         1        2.0000           -0.8087752             -22.0079
       ...           ...                  ...                  ...
        78        1.9987           -0.5330952             -14.5063
        79        1.9985           -0.5307446             -14.4423
        80        1.9983           -0.5286397             -14.3850
        81        1.9980           -0.5260829             -14.3154
        82        1.9971           -0.5199446             -14.1484
        83        1.9964           -0.5167763             -14.0622
        84        1.9962           -0.5157417             -14.0340
        85        1.9815           -0.4906965             -13.3525
        86        1.9787           -0.4884347             -13.2910
        87        1.9725           -0.4843176             -13.1790
        88        1.9363           -0.4707434             -12.8096
        89        1.8780           -0.4599593             -12.5161
        90        1.8441           -0.4557945             -12.4028 (HOMO)
        91        0.4049           -0.3949629             -10.7475 (LUMO)
        92        0.0161           -0.3404585              -9.2643
        93        0.0037           -0.3169991              -8.6260
        94        0.0031           -0.3141495              -8.5484
        95        0.0027           -0.3122378              -8.4964
        96        0.0024           -0.3099750              -8.4348
        97        0.0006           -0.2870475              -7.8110
        98        0.0000           -0.1910905              -5.1998
        99        0.0000           -0.1873360              -5.0977
       100                         -0.1349863              -3.6732
       101                         -0.0672387              -1.8297
       ...                                ...                  ...
       171                          0.5766989              15.6928
      -------------------------------------------------------------
                  HL-Gap            0.0608315 Eh            1.6553 eV

     #   Z          covCN         q      C6AA      α(0)
     1   7 N        1.775    -0.274    27.923     7.825
     2   6 C        2.827     0.101    25.756     8.316
     3   6 C        3.914     0.006    20.413     6.422
     4   6 C        2.976     0.005    27.903     8.665
     5   6 C        2.920    -0.080    30.003     8.982
     6   6 C        2.863     0.130    25.148     8.220
     7   8 O        1.706    -0.229    17.803     5.697
     8   6 C        3.645     0.027    20.453     6.500
     9   6 C        2.864     0.129    25.180     8.225
    10   8 O        1.706    -0.229    17.792     5.695
    11   6 C        3.645     0.027    20.454     6.500
    12   6 C        2.914    -0.075    29.881     8.964
    13   6 C        2.920    -0.054    29.346     8.884
    14   6 C        3.810    -0.065    21.733     6.636
    15   6 C        3.802    -0.068    21.808     6.649
    16   6 C        2.843     0.006    27.884     8.654
    17   7 N        2.729     0.012    21.047     6.814
    18   6 C        3.756    -0.017    20.927     6.523
    19   6 C        3.808    -0.070    21.838     6.652
    20   6 C        2.969    -0.000    28.033     8.685
    21   6 C        2.922    -0.049    29.212     8.863
    22   6 C        2.914    -0.067    29.679     8.933
    23   6 C        2.865     0.134    25.077     8.209
    24   8 O        1.706    -0.222    17.679     5.677
    25   6 C        3.645     0.025    20.490     6.506
    26   6 C        2.863     0.133    25.085     8.210
    27   8 O        1.706    -0.225    17.725     5.684
    28   6 C        3.645     0.027    20.455     6.500
    29   6 C        2.919    -0.079    29.985     8.980
    30   6 C        3.700    -0.071    22.034     6.713
    31   6 C        2.946     0.033    27.269     8.565
    32   6 C        3.761    -0.123    22.910     6.823
    33   6 C        2.843    -0.100    30.498     9.051
    34   1 H        0.926     0.054     2.267     2.354
    35   1 H        0.924     0.054     2.266     2.354
    36   1 H        0.925     0.082     1.962     2.191
    37   1 H        0.924     0.048     2.342     2.393
    38   1 H        0.924     0.055     2.261     2.352
    39   1 H        0.925     0.081     1.966     2.192
    40   1 H        0.924     0.048     2.351     2.398
    41   1 H        0.926     0.051     2.307     2.375
    42   1 H        0.926     0.036     2.503     2.474
    43   1 H        0.925     0.064     2.157     2.297
    44   1 H        0.924     0.052     2.290     2.366
    45   1 H        0.925     0.066     2.130     2.282
    46   1 H        0.923     0.080     1.976     2.198
    47   1 H        0.922     0.007     2.936     2.680
    48   1 H        0.926     0.069     2.096     2.264
    49   1 H        0.924     0.068     2.111     2.272
    50   1 H        0.924     0.068     2.109     2.271
    51   1 H        0.924     0.054     2.266     2.354
    52   1 H        0.924     0.056     2.251     2.346
    53   1 H        0.926     0.045     2.385     2.415
    54   1 H        0.926     0.059     2.216     2.328
    55   1 H        0.924     0.054     2.266     2.354
    56   1 H        0.924     0.056     2.247     2.344
    57   1 H        0.925     0.082     1.954     2.186
    58   1 H        0.925     0.082     1.959     2.189
    59   1 H        0.924     0.049     2.334     2.389
    60   1 H        0.924     0.052     2.290     2.366
    61   1 H        0.926     0.047     2.354     2.399
    62   1 H        0.924     0.075     2.027     2.226
    63   1 H        0.924     0.081     1.965     2.192
    64   1 H        0.925     0.079     1.985     2.203
    65   1 H        0.795    -0.004     3.198     2.811
    66   1 H        0.925     0.080     1.975     2.198
    67   1 H        0.925     0.051     2.305     2.374
    68   1 H        0.925     0.060     2.200     2.320
    69   1 H        0.926     0.041     2.441     2.443
    70   1 H        0.795     0.001     3.098     2.767
    71   1 H        0.926     0.058     2.222     2.331
    72   1 H        0.860     0.160     1.333     1.809

Wiberg/Mayer (AO) data.
largest (>0.10) Wiberg bond orders for each atom

     #   Z sym  total        # sym  WBO       # sym  WBO       # sym  WBO
 ---------------------------------------------------------------------------
     1   7 N    3.033 --     2 C    1.964    72 H    0.942
     2   6 C    3.929 --     1 N    1.964     3 C    0.979    47 H    0.904
     3   6 C    3.979 --     2 C    0.979     4 C    0.962    14 C    0.959
                            31 C    0.956
     4   6 C    3.950 --    13 C    1.420     5 C    1.366     3 C    0.962
     5   6 C    3.962 --     6 C    1.403     4 C    1.366    34 H    0.958
     6   6 C    3.908 --     5 C    1.403     9 C    1.220     7 O    1.101
     7   8 O    2.257 --     6 C    1.101     8 C    0.977
     8   6 C    3.931 --     7 O    0.977    36 H    0.977    37 H    0.973
                            35 H    0.973
     9   6 C    3.904 --    12 C    1.396     6 C    1.220    10 O    1.101
    10   8 O    2.254 --     9 C    1.101    11 C    0.978
    11   6 C    3.932 --    10 O    0.978    39 H    0.977    40 H    0.974
                            38 H    0.973
    12   6 C    3.962 --    13 C    1.397     9 C    1.396    41 H    0.964
    13   6 C    3.956 --     4 C    1.420    12 C    1.397    42 H    0.963
    14   6 C    3.973 --    15 C    0.983    44 H    0.973    43 H    0.969
                             3 C    0.959
    15   6 C    3.986 --    16 C    1.060    14 C    0.983    45 H    0.961
                            46 H    0.925
    16   6 C    3.585 --    17 N    1.403    15 C    1.060    48 H    0.957
    17   7 N    3.477 --    16 C    1.403    30 C    0.998    18 C    0.988
    18   6 C    3.955 --    17 N    0.988    50 H    0.968    19 C    0.965
                            49 H    0.965
    19   6 C    3.976 --    20 C    1.008    52 H    0.972    51 H    0.972
                            18 C    0.965
    20   6 C    3.944 --    21 C    1.409    29 C    1.380    19 C    1.008
    21   6 C    3.950 --    22 C    1.417    20 C    1.409    53 H    0.968
    22   6 C    3.959 --    21 C    1.417    23 C    1.383    54 H    0.963
    23   6 C    3.895 --    22 C    1.383    26 C    1.219    24 O    1.111
    24   8 O    2.255 --    23 C    1.111    25 C    0.976
    25   6 C    3.928 --    57 H    0.977    24 O    0.976    56 H    0.973
                            55 H    0.973
    26   6 C    3.899 --    29 C    1.395    23 C    1.219    27 O    1.104
    27   8 O    2.254 --    26 C    1.104    28 C    0.978
    28   6 C    3.932 --    27 O    0.978    58 H    0.977    59 H    0.973
                            60 H    0.973
    29   6 C    3.959 --    26 C    1.395    20 C    1.380    61 H    0.962
    30   6 C    3.957 --    17 N    0.998    64 H    0.977    62 H    0.966
                            63 H    0.960
    31   6 C    3.947 --    33 C    1.890    32 C    1.033     3 C    0.956
    32   6 C    3.981 --    31 C    1.033    68 H    0.980    67 H    0.964
                            66 H    0.952
    33   6 C    3.944 --    31 C    1.890    69 H    0.971    71 H    0.968
    34   1 H    0.996 --     5 C    0.958
    35   1 H    0.993 --     8 C    0.973
    36   1 H    0.993 --     8 C    0.977
    37   1 H    0.994 --     8 C    0.973
    38   1 H    0.993 --    11 C    0.973
    39   1 H    0.993 --    11 C    0.977
    40   1 H    0.994 --    11 C    0.974
    41   1 H    0.996 --    12 C    0.964
    42   1 H    0.998 --    13 C    0.963
    43   1 H    0.995 --    14 C    0.969
    44   1 H    0.996 --    14 C    0.973
    45   1 H    0.995 --    15 C    0.961
    46   1 H    0.967 --    15 C    0.925
    47   1 H    0.988 --     2 C    0.904
    48   1 H    0.995 --    16 C    0.957
    49   1 H    0.991 --    18 C    0.965
    50   1 H    0.994 --    18 C    0.968
    51   1 H    0.996 --    19 C    0.972
    52   1 H    0.996 --    19 C    0.972
    53   1 H    0.997 --    21 C    0.968
    54   1 H    0.995 --    22 C    0.963
    55   1 H    0.992 --    25 C    0.973
    56   1 H    0.992 --    25 C    0.973
    57   1 H    0.992 --    25 C    0.977
    58   1 H    0.993 --    28 C    0.977
    59   1 H    0.993 --    28 C    0.973
    60   1 H    0.993 --    28 C    0.973
    61   1 H    0.997 --    29 C    0.962
    62   1 H    0.984 --    30 C    0.966
    63   1 H    0.987 --    30 C    0.960
    64   1 H    0.993 --    30 C    0.977
    65   1 H    0.997 --    70 H    0.984
    66   1 H    0.988 --    32 C    0.952
    67   1 H    0.993 --    32 C    0.964
    68   1 H    0.994 --    32 C    0.980
    69   1 H    0.997 --    33 C    0.971
    70   1 H    0.999 --    65 H    0.984
    71   1 H    0.994 --    33 C    0.968
    72   1 H    0.970 --     1 N    0.942
 ---------------------------------------------------------------------------

molecular dipole:
                 x           y           z       tot (Debye)
 q only:        0.791      -0.116      -0.539
   full:        1.153      -0.109      -0.651       3.377

           -------------------------------------------------
          | TOTAL ENERGY              -99.338007850167 Eh   |
          | GRADIENT NORM               0.002342396369 Eh/α |
          | HOMO-LUMO GAP               1.655310544751 eV   |
           -------------------------------------------------

 * finished run on 2024/04/06 at 11:15:00.420
