   * xtb version 6.6.1 (8d0f1dd) compiled by 'conda@1efc2f54142f' on 2023-08-01
          program call               : xtb struc.xyz --opt loose --input .xc1 --gfn2

   ID    Z sym.   atoms
    1    6 C      1, 3, 5-7, 10, 11, 14
    2    7 N      2, 4, 9, 13
    3    8 O      8, 12
    4    1 H      15-25
constraining bond 2 6 to    3.9200000 Å, actual value:    1.3708515 Å

          :  Hamiltonian                  GFN2-xTB          :
 * total energy  :   -30.6451892 Eh     change       -0.6650680E-10 Eh
 * total energy  :   -34.8021801 Eh     change       -0.4156991E+01 Eh
 * total energy  :   -38.2879769 Eh     change       -0.3485797E+01 Eh
 * total energy  :   -40.5085223 Eh     change       -0.2220545E+01 Eh
 * total energy  :   -41.4940689 Eh     change       -0.9855466E+00 Eh
 * total energy  :   -41.6637975 Eh     change       -0.1697287E+00 Eh
 * total energy  :   -41.7030558 Eh     change       -0.3925831E-01 Eh
 * total energy  :   -41.7824538 Eh     change       -0.7939796E-01 Eh
 * total energy  :   -41.8386187 Eh     change       -0.5616490E-01 Eh
 * total energy  :   -41.8931578 Eh     change       -0.5453911E-01 Eh
 * total energy  :   -42.1373876 Eh     change       -0.1087024E-01 Eh
 * total energy  :   -42.1414245 Eh     change       -0.4036897E-02 Eh
 * total energy  :   -42.1430780 Eh     change       -0.1653439E-02 Eh
 * total energy  :   -42.1452249 Eh     change       -0.2146952E-02 Eh
 * total energy  :   -42.1460084 Eh     change       -0.7835358E-03 Eh
 * total energy  :   -42.1462459 Eh     change       -0.2374651E-03 Eh
 * total energy  :   -42.1463450 Eh     change       -0.9905498E-04 Eh
 * total energy  :   -42.1463988 Eh     change       -0.5388354E-04 Eh
 * total energy  :   -42.1464303 Eh     change       -0.3146052E-04 Eh
   *** GEOMETRY OPTIMIZATION CONVERGED AFTER 31 ITERATIONS ***

 final structure:
================
25
 xtb: 6.6.1 (8d0f1dd)
C            3.37323823817705        0.89677901124112        0.04084530450078
N            3.56247818927461       -0.48927739022540        0.02284345141149
C            2.69427325749193       -1.38642545930852       -0.00024680069011
N            1.27849029736249       -1.40648304333928       -0.02067172989426
C            0.16651789912961       -0.62548267061104       -0.01264724483885
C           -0.14064052829869        0.77415222096392       -0.01765810397510
C            0.64155448357196        1.88163701332247       -0.03159094648892
O            0.84550468180879        3.02850348565284       -0.05098169533651
N           -1.54090433886631        0.88812312335116       -0.00627874271730
C           -2.33046282628679        2.09321247907102       -0.00300945164635
C           -2.10660097411723       -0.35425096959300        0.00139476779925
O           -3.26590753450171       -0.64686315216803        0.01176929333201
N           -1.02912939293033       -1.26667600750635       -0.00406890223396
C           -1.27753420325131       -2.68551215521672        0.00086398227702
H            3.80167522487313        1.30698040405067        0.95836242584000
H            3.90303587179445        1.34247548040891       -0.80390807020459
H            2.28950695443243        1.19379334322375       -0.01475467831493
H            3.06613354535929       -2.40313082133572       -0.00610611233231
H           -1.68994412051781        2.97004584321751        0.01287281479189
H           -2.96249531896832        2.11856183069905       -0.89240417102593
H           -2.97995989306180        2.09891395948120        0.87390718174097
H           -0.87008593973724       -3.15984535121887        0.89589923850915
H           -0.88637280910172       -3.16305494313304       -0.89980437125624
H           -2.36126336736540       -2.80940154146656        0.01043894175545
H            0.97932411782854       -2.37853614796137       -0.03389476310294

          :  Hamiltonian                  GFN2-xTB          :
         :: total energy             -42.146430310515 Eh    ::
         :: gradient norm              0.003038607356 Eh/a0 ::
         :: HOMO-LUMO gap              2.107825508053 eV    ::
         :: SCC energy               -42.690899049636 Eh    ::
         :: -> dispersion             -0.021794829432 Eh    ::
         :: repulsion energy           0.544260388212 Eh    ::

    * Orbital Energies and Occupations

         #    Occupation            Energy/Eh            Energy/eV
      -------------------------------------------------------------
         1        2.0000           -0.9314624             -25.3464
       ...           ...                  ...                  ...
        25        2.0000           -0.6796482             -18.4942
        26        2.0000           -0.6736358             -18.3306
        27        1.9999           -0.6653276             -18.1045
        28        1.9999           -0.6554366             -17.8353
        29        1.9995           -0.6377134             -17.3531
        30        1.9994           -0.6337837             -17.2461
        31        1.9993           -0.6308382             -17.1660
        32        1.9991           -0.6268807             -17.0583
        33        1.9959           -0.6027908             -16.4028
        34        1.9861           -0.5834197             -15.8757
        35        1.9833           -0.5805019             -15.7963
        36        1.9168           -0.5545351             -15.0897
        37        1.8358           -0.5430919             -14.7783 (HOMO)
        38        0.1548           -0.4656307             -12.6705 (LUMO)
        39        0.1292           -0.4625443             -12.5865
        40        0.0012           -0.3869716             -10.5300
        41        0.0001           -0.3464449              -9.4272
        42        0.0000           -0.3204295              -8.7193
        43                         -0.2172837              -5.9126
        44                         -0.1935846              -5.2677
        45                         -0.1230882              -3.3494
        46                         -0.1199190              -3.2632
        47                         -0.0770866              -2.0976
        48                         -0.0524768              -1.4280
       ...                                ...                  ...
        67                          0.7864985              21.4017
      -------------------------------------------------------------
                  HL-Gap            0.0774612 Eh            2.1078 eV

     #   Z          covCN         q      C6AA      α(0)
     1   6 C        3.697    -0.035    21.377     6.613
     2   7 N        1.820    -0.129    24.569     7.344
     3   6 C        2.766     0.106    25.631     8.291
     4   7 N        2.689    -0.127    23.759     7.239
     5   6 C        2.897     0.131    25.136     8.220
     6   6 C        3.006     0.002    27.960     8.674
     7   6 C        1.848     0.240    25.566     8.168
     8   8 O        0.856    -0.138    17.089     5.542
     9   7 N        2.800    -0.046    22.128     6.987
    10   6 C        3.691    -0.065    21.942     6.703
    11   6 C        2.826     0.314    21.669     7.628
    12   8 O        0.857    -0.351    20.731     6.105
    13   7 N        2.830    -0.055    22.308     7.015
    14   6 C        3.690    -0.075    22.127     6.732
    15   1 H        0.924     0.111     1.686     2.030
    16   1 H        0.924     0.113     1.674     2.023
    17   1 H        0.922     0.057     2.238     2.339
    18   1 H        0.925     0.104     1.750     2.069
    19   1 H        0.925     0.091     1.872     2.140
    20   1 H        0.924     0.107     1.724     2.053
    21   1 H        0.924     0.108     1.718     2.050
    22   1 H        0.924     0.088     1.895     2.153
    23   1 H        0.924     0.088     1.897     2.154
    24   1 H        0.924     0.131     1.531     1.935
    25   1 H        0.860     0.231     0.960     1.535

Wiberg/Mayer (AO) data.
largest (>0.10) Wiberg bond orders for each atom

     #   Z sym  total        # sym  WBO       # sym  WBO       # sym  WBO
 ---------------------------------------------------------------------------
     1   6 C    3.933 --     2 N    1.083    16 H    0.941    15 H    0.940
                            17 H    0.834
     2   7 N    3.157 --     3 C    1.823     1 C    1.083     4 N    0.101
     3   6 C    3.932 --     2 N    1.823     4 N    1.059    18 H    0.939
     4   7 N    3.486 --     5 C    1.232     3 C    1.059    25 H    0.902
                             2 N    0.101
     5   6 C    3.884 --    13 N    1.252     4 N    1.232     6 C    1.195
     6   6 C    3.877 --     7 C    1.361     5 C    1.195     9 N    1.047
                             8 O    0.116
     7   6 C    3.705 --     8 O    2.016     6 C    1.361    17 H    0.124
     8   8 O    2.335 --     7 C    2.016     6 C    0.116
     9   7 N    3.466 --    11 C    1.146     6 C    1.047    10 C    0.987
                            12 O    0.150
    10   6 C    3.917 --     9 N    0.987    19 H    0.975    21 H    0.958
                            20 H    0.958
    11   6 C    3.948 --    12 O    1.689     9 N    1.146    13 N    1.019
    12   8 O    2.018 --    11 C    1.689     9 N    0.150    13 N    0.111
    13   7 N    3.567 --     5 C    1.252    11 C    1.019    14 C    0.987
                            12 O    0.111
    14   6 C    3.927 --    13 N    0.987    22 H    0.963    23 H    0.962
                            24 H    0.959
    15   1 H    0.980 --     1 C    0.940
    16   1 H    0.979 --     1 C    0.941
    17   1 H    0.983 --     1 C    0.834     7 C    0.124
    18   1 H    0.984 --     3 C    0.939
    19   1 H    0.990 --    10 C    0.975
    20   1 H    0.976 --    10 C    0.958
    21   1 H    0.976 --    10 C    0.958
    22   1 H    0.987 --    14 C    0.963
    23   1 H    0.987 --    14 C    0.962
    24   1 H    0.982 --    14 C    0.959
    25   1 H    0.945 --     4 N    0.902
 ---------------------------------------------------------------------------

molecular dipole:
                 x           y           z       tot (Debye)
 q only:        1.415      -0.781       0.001
   full:        1.320      -0.852      -0.004       3.993

           -------------------------------------------------
          | TOTAL ENERGY              -42.146430310515 Eh   |
          | GRADIENT NORM               0.003038607356 Eh/α |
          | HOMO-LUMO GAP               2.107825508053 eV   |
           -------------------------------------------------

 * finished run on 2024/06/05 at 19:57:50.072
