   * xtb version 6.6.1 (8d0f1dd) compiled by 'conda@1efc2f54142f' on 2023-08-01
          program call               : xtb xtbopt.xyz --opt crude --input .xc2 --gfn2

   ID    Z sym.   atoms
    1    6 C      1, 3, 5-7, 10, 11, 14
    2    7 N      2, 4, 9, 13
    3    8 O      8, 12
    4    1 H      15-25
########################################################################
[WARNING] Please study the warnings concerning your input carefully
-1- readin_getIntValue: could not parse ''
########################################################################

          :  Hamiltonian                  GFN2-xTB          :
 * total energy  :   -42.1465197 Eh     change       -0.5471179E-12 Eh
 * total energy  :   -42.1478877 Eh     change       -0.1368046E-02 Eh
 * total energy  :   -42.1491430 Eh     change       -0.1255303E-02 Eh
 * total energy  :   -42.1492977 Eh     change       -0.1546942E-03 Eh
 * total energy  :   -42.1501973 Eh     change       -0.8995368E-03 Eh
 * total energy  :   -42.1507417 Eh     change       -0.5444633E-03 Eh
 * total energy  :   -42.1514998 Eh     change       -0.7581010E-03 Eh
 * total energy  :   -42.1518060 Eh     change       -0.3062118E-03 Eh
   *** GEOMETRY OPTIMIZATION CONVERGED AFTER 8 ITERATIONS ***

 final structure:
================
25
 xtb: 6.6.1 (8d0f1dd)
C            3.24541766779209        0.98645262712034        0.04207066476390
N            3.40511855742448       -0.36474556241565        0.01637443427031
C            2.66567413348884       -1.36948929251888       -0.00564989628862
N            1.28367160105506       -1.52843201326243       -0.01691423775949
C            0.18465482370896       -0.71949346380217       -0.00676293990178
C           -0.04153802591278        0.67845714146025       -0.00887478477953
C            0.77555948527214        1.78619304273871       -0.01437786565751
O            0.73649547178974        2.96685194343556       -0.05165742033843
N           -1.43643949409476        0.86284015615609       -0.00494029213614
C           -2.17284798618760        2.10042792714704       -0.00711811554317
C           -2.06453328253410       -0.34803155836290        0.00030333782373
O           -3.23705422191518       -0.58456239898691        0.00710202664095
N           -1.03292619452651       -1.31236832266139       -0.00156954919106
C           -1.34286104774155       -2.71872813798103        0.00221458827503
H            3.66631232229778        1.41593711849788        0.95473836574350
H            3.71061672563539        1.45420987445152       -0.83005936859535
H            2.10990182687589        1.32604424267804        0.02121740138885
H            3.16961316735194       -2.32716199655780       -0.01953160924414
H           -1.49785294346166        2.95125487662925        0.02461909167521
H           -2.78668395766642        2.15776650168371       -0.90754229334173
H           -2.83465491014875        2.12732526175771        0.85965564291948
H           -0.95357802277931       -3.21079105708035        0.89529324463885
H           -0.97245115256652       -3.21144958632767       -0.89860193798148
H           -2.43150229523777       -2.79340298885146        0.01317099062409
H            1.01231926618014       -2.50686579334774       -0.03198786010580

          :  Hamiltonian                  GFN2-xTB          :
         :: total energy             -42.151806030234 Eh    ::
         :: gradient norm              0.008776670318 Eh/a0 ::
         :: HOMO-LUMO gap              2.110210865707 eV    ::
         :: SCC energy               -42.692020640000 Eh    ::
         :: -> dispersion             -0.021992740481 Eh    ::
         :: repulsion energy           0.540082919921 Eh    ::

    * Orbital Energies and Occupations

         #    Occupation            Energy/Eh            Energy/eV
      -------------------------------------------------------------
         1        2.0000           -0.9117364             -24.8096
       ...           ...                  ...                  ...
        25        2.0000           -0.6764313             -18.4066
        26        2.0000           -0.6741298             -18.3440
        27        1.9999           -0.6608575             -17.9828
        28        1.9999           -0.6513895             -17.7252
        29        1.9998           -0.6478718             -17.6295
        30        1.9996           -0.6331555             -17.2290
        31        1.9995           -0.6324380             -17.2095
        32        1.9989           -0.6190300             -16.8447
        33        1.9960           -0.5983458             -16.2818
        34        1.9890           -0.5823285             -15.8460
        35        1.9854           -0.5778137             -15.7231
        36        1.9591           -0.5612485             -15.2723
        37        1.8219           -0.5367899             -14.6068 (HOMO)
        38        0.1418           -0.4592411             -12.4966 (LUMO)
        39        0.1071           -0.4544957             -12.3675
        40        0.0020           -0.3906427             -10.6299
        41        0.0001           -0.3414681              -9.2918
        42        0.0000           -0.3179469              -8.6518
        43                         -0.1984873              -5.4011
        44                         -0.1906029              -5.1866
        45                         -0.1158699              -3.1530
        46                         -0.1029083              -2.8003
        47                         -0.0795151              -2.1637
        48                         -0.0474094              -1.2901
       ...                                ...                  ...
        67                          0.6345954              17.2682
      -------------------------------------------------------------
                  HL-Gap            0.0775488 Eh            2.1102 eV

     #   Z          covCN         q      C6AA      α(0)
     1   6 C        3.667    -0.026    21.299     6.618
     2   7 N        1.822    -0.120    24.383     7.317
     3   6 C        2.758     0.108    25.593     8.284
     4   7 N        2.688    -0.119    23.595     7.214
     5   6 C        2.910     0.123    25.308     8.249
     6   6 C        3.007    -0.003    28.086     8.693
     7   6 C        2.350     0.218    24.352     8.027
     8   8 O        0.856    -0.204    18.137     5.710
     9   7 N        2.808    -0.046    22.129     6.987
    10   6 C        3.691    -0.067    21.972     6.708
    11   6 C        2.831     0.312    21.705     7.634
    12   8 O        0.857    -0.355    20.809     6.116
    13   7 N        2.831    -0.055    22.308     7.015
    14   6 C        3.689    -0.073    22.098     6.728
    15   1 H        0.924     0.123     1.587     1.970
    16   1 H        0.924     0.124     1.584     1.968
    17   1 H        1.402     0.109     1.697     2.034
    18   1 H        0.925     0.111     1.691     2.034
    19   1 H        0.925     0.102     1.770     2.080
    20   1 H        0.924     0.105     1.741     2.064
    21   1 H        0.924     0.106     1.733     2.059
    22   1 H        0.924     0.086     1.915     2.164
    23   1 H        0.924     0.086     1.915     2.164
    24   1 H        0.924     0.129     1.546     1.944
    25   1 H        0.860     0.229     0.969     1.542

Wiberg/Mayer (AO) data.
largest (>0.10) Wiberg bond orders for each atom

     #   Z sym  total        # sym  WBO       # sym  WBO       # sym  WBO
 ---------------------------------------------------------------------------
     1   6 C    3.904 --     2 N    1.182    16 H    0.934    15 H    0.933
                            17 H    0.622     8 O    0.105
     2   7 N    3.284 --     3 C    1.769     1 C    1.182     4 N    0.109
     3   6 C    3.932 --     2 N    1.769     4 N    1.110    18 H    0.935
     4   7 N    3.499 --     5 C    1.193     3 C    1.110    25 H    0.907
                             2 N    0.109
     5   6 C    3.880 --    13 N    1.249     6 C    1.241     4 N    1.193
     6   6 C    3.874 --     7 C    1.290     5 C    1.241     9 N    1.060
     7   6 C    3.779 --     8 O    1.890     6 C    1.290    17 H    0.323
     8   8 O    2.284 --     7 C    1.890     1 C    0.105
     9   7 N    3.481 --    11 C    1.149     6 C    1.060    10 C    0.989
                            12 O    0.148
    10   6 C    3.912 --     9 N    0.989    19 H    0.967    21 H    0.957
                            20 H    0.956
    11   6 C    3.947 --    12 O    1.684     9 N    1.149    13 N    1.019
    12   8 O    2.007 --    11 C    1.684     9 N    0.148    13 N    0.112
    13   7 N    3.563 --     5 C    1.249    11 C    1.019    14 C    0.988
                            12 O    0.112
    14   6 C    3.929 --    13 N    0.988    22 H    0.964    23 H    0.964
                            24 H    0.961
    15   1 H    0.979 --     1 C    0.933
    16   1 H    0.979 --     1 C    0.934
    17   1 H    0.981 --     1 C    0.622     7 C    0.323
    18   1 H    0.982 --     3 C    0.935
    19   1 H    0.988 --    10 C    0.967
    20   1 H    0.975 --    10 C    0.956
    21   1 H    0.976 --    10 C    0.957
    22   1 H    0.987 --    14 C    0.964
    23   1 H    0.986 --    14 C    0.964
    24   1 H    0.983 --    14 C    0.961
    25   1 H    0.947 --     4 N    0.907
 ---------------------------------------------------------------------------

molecular dipole:
                 x           y           z       tot (Debye)
 q only:        1.992      -1.058       0.020
   full:        1.992      -1.213       0.021       5.928

           -------------------------------------------------
          | TOTAL ENERGY              -42.151806030234 Eh   |
          | GRADIENT NORM               0.008776670318 Eh/α |
          | HOMO-LUMO GAP               2.110210865707 eV   |
           -------------------------------------------------

 * finished run on 2024/06/05 at 19:57:50.489
