   * xtb version 6.6.1 (8d0f1dd) compiled by 'conda@1efc2f54142f' on 2023-08-01
          program call               : xtb struc.xyz --opt loose --input .xc1 --gfn2

   ID    Z sym.   atoms
    1    7 N      1, 17
    2    6 C      2-6, 8, 9, 11-16, 18-23, 25, 26, 28-33
    3    8 O      7, 10, 24, 27
    4    1 H      34-72
constraining bond 14 31 to    5.0000000 Å, actual value:    2.5586239 Å

          :  Hamiltonian                  GFN2-xTB          :
 * total energy  :   -98.3398971 Eh     change       -0.4035485E-08 Eh
 * total energy  :   -98.6245312 Eh     change       -0.2846341E+00 Eh
 * total energy  :   -98.7847359 Eh     change       -0.1602047E+00 Eh
 * total energy  :   -98.9050910 Eh     change       -0.1203551E+00 Eh
 * total energy  :   -99.0008909 Eh     change       -0.9579996E-01 Eh
 * total energy  :   -99.0747828 Eh     change       -0.7389191E-01 Eh
 * total energy  :   -99.1237590 Eh     change       -0.4897613E-01 Eh
 * total energy  :   -99.1505605 Eh     change       -0.2680150E-01 Eh
 * total energy  :   -99.1652947 Eh     change       -0.1473427E-01 Eh
 * total energy  :   -99.1745388 Eh     change       -0.9244077E-02 Eh
 * total energy  :   -99.3404321 Eh     change       -0.1070524E-03 Eh
 * total energy  :   -99.3405465 Eh     change       -0.1144075E-03 Eh
 * total energy  :   -99.3406369 Eh     change       -0.9039275E-04 Eh
 * total energy  :   -99.3407183 Eh     change       -0.8145405E-04 Eh
 * total energy  :   -99.3407801 Eh     change       -0.6177491E-04 Eh
 * total energy  :   -99.3408322 Eh     change       -0.5212833E-04 Eh
 * total energy  :   -99.3409059 Eh     change       -0.7372334E-04 Eh
 * total energy  :   -99.3409635 Eh     change       -0.5756328E-04 Eh
 * total energy  :   -99.3410081 Eh     change       -0.4458910E-04 Eh
   *** GEOMETRY OPTIMIZATION CONVERGED AFTER 68 ITERATIONS ***

 final structure:
================
72
 xtb: 6.6.1 (8d0f1dd)
N           -1.54118386339137        3.06756283024571        1.88919538878616
C           -2.65074917358473        2.65321026889079        1.65824160268762
C           -3.77376173078132        2.23246786809279        1.11061790801281
C           -3.94462986338991        0.80592968345070        0.85713261189561
C           -4.83113372954237        0.33001298050296       -0.11661198155808
C           -4.95824731894038       -1.02378973840172       -0.37405176004271
O           -5.76351181724673       -1.56721966194985       -1.30819356426027
C           -6.57558059382489       -0.72924295966775       -2.09741928931294
C           -4.19350245607191       -1.95922474116760        0.37763314500258
O           -4.39108620462108       -3.25508571289832        0.06631469968675
C           -3.72180694371879       -4.24874418567056        0.80593235891962
C           -3.31855317816392       -1.48336910809500        1.34599825045633
C           -3.18817038871680       -0.12560556166187        1.57474910657249
C           -1.50772212711727        1.70620666457344       -2.43541556691602
C           -0.45950087461060        0.76309674396385       -2.09867597849077
C           -0.37852193103609        0.55026747280571       -0.52856195153549
N            0.49295527620855       -0.48504043095564       -0.10144781075796
C            1.89815388896811       -0.22857786838304        0.05885320160030
C            2.78042557018580       -0.48127849715952       -1.18725722106579
C            4.22068978768875       -0.23693425407363       -0.84986848730636
C            4.80553654104210        1.00207176371260       -1.07061501080853
C            6.13342756670885        1.23094392711634       -0.74776826243769
C            6.90809444755995        0.22413843814620       -0.18727409444325
O            8.20463995822819        0.32754995422449        0.15499524447790
C            8.89022767532497        1.53330120436546       -0.09308986822763
C            6.31409841184638       -1.04656537096473        0.05894280375436
O            7.13354556211029       -1.96292902131082        0.60847785624659
C            6.64587476085053       -3.25691713182240        0.87228736103961
C            4.98437027463859       -1.25083469352688       -0.27563344258678
C            0.11208315626460       -1.82931289063602       -0.43807087130255
C           -4.90358633548616        3.22433380184052        0.90077030625369
C           -5.87105865058688        3.12268627918376        2.08369862420460
C           -4.38855984252123        4.65111043684058        0.73729618690734
H           -5.41391565173365        1.02981814731938       -0.69160362954165
H           -7.28157254420772       -0.16030116538380       -1.48524990473601
H           -7.12760287356049       -1.39664693528014       -2.75627063756275
H           -5.97561107690080       -0.04112557536651       -2.70162059357299
H           -3.97750132517166       -4.19783598082309        1.86858063566573
H           -4.06426988260137       -5.19763430180627        0.39790758094214
H           -2.63562091374739       -4.17570752300315        0.68831003305188
H           -2.73684124385225       -2.17022092657663        1.93929260313858
H           -2.50636245207270        0.21682227075477        2.33815495416689
H           -2.53775003200486        1.42727199001727       -2.31066135418848
H           -1.28900386267642        2.72786995813701       -2.67896742429760
H           -0.67735858293598       -0.22431546327159       -2.51612909729687
H            0.51109763301545        1.10785884565613       -2.45105109118513
H           -1.38898982744786        0.31392254106148       -0.18592456322398
H           -0.06828173082869        1.49235877275028       -0.07591043613495
H            2.26325789204674       -0.87484963415455        0.86477495014805
H            2.02328201486009        0.80831870279958        0.37658877422559
H            2.47356109140150        0.18407770273723       -1.99375318514738
H            2.64717821141554       -1.51254028593115       -1.51593646963721
H            4.22667176375834        1.79996099019558       -1.51017081732137
H            6.56109169478648        2.20121219067038       -0.94075101600208
H            8.46086268413540        2.36305016759259        0.47644787296357
H            8.88914486444236        1.78167458857586       -1.15858801525361
H            9.91299935996169        1.36067311245721        0.23653624461513
H            7.48606536681126       -3.80557243275943        1.29356777180613
H            5.82685009912527       -3.23622782948141        1.59818080842060
H            6.31171680990169       -3.75398144570385       -0.04357409644050
H            4.52798122464147       -2.21322066231846       -0.10428476964272
H            0.27184625976813       -2.07072198801507       -1.49716450992146
H           -0.94649830189857       -1.96356824077523       -0.21505883791649
H            0.69330348807111       -2.52773532002641        0.16234906415032
H           -5.44167685085401        2.94980768472992       -0.01084701795103
H           -5.37415832893123        3.41877250537697        3.00532565775892
H           -6.23434670966121        2.10398084508732        2.19895978572626
H           -6.72272608828766        3.77992426624708        1.92723527389989
H           -3.89119898626740        4.99243867560082        1.64256834846310
H           -3.68258123589520        4.71415247763273       -0.08801797340459
H           -5.21954132957735        5.32213082495022        0.53263252123002
H           -1.15024088430195        3.23602948345387        2.80420590717703

          :  Hamiltonian                  GFN2-xTB          :
         :: total energy             -99.341008091913 Eh    ::
         :: gradient norm              0.001515635478 Eh/a0 ::
         :: HOMO-LUMO gap              0.920655356836 eV    ::
         :: SCC energy              -100.762642704042 Eh    ::
         :: -> dispersion             -0.069712962251 Eh    ::
         :: repulsion energy           1.420301188059 Eh    ::

    * Orbital Energies and Occupations

         #    Occupation            Energy/Eh            Energy/eV
      -------------------------------------------------------------
         1        2.0000           -0.8131085             -22.1258
       ...           ...                  ...                  ...
        78        1.9981           -0.5312721             -14.4566
        79        1.9981           -0.5310874             -14.4516
        80        1.9978           -0.5291245             -14.3982
        81        1.9971           -0.5250047             -14.2861
        82        1.9968           -0.5233819             -14.2419
        83        1.9954           -0.5175009             -14.0819
        84        1.9951           -0.5163981             -14.0519
        85        1.9857           -0.4994447             -13.5906
        86        1.9691           -0.4871122             -13.2550
        87        1.9339           -0.4747666             -12.9191
        88        1.9020           -0.4682801             -12.7425
        89        1.7564           -0.4525961             -12.3158
        90        1.6868           -0.4479749             -12.1900 (HOMO)
        91        0.7773           -0.4141414             -11.2694 (LUMO)
        92        0.0093           -0.3363830              -9.1534
        93        0.0066           -0.3309016              -9.0043
        94        0.0026           -0.3163491              -8.6083
        95        0.0018           -0.3102413              -8.4421
        96        0.0015           -0.3078687              -8.3775
        97        0.0001           -0.2626520              -7.1471
        98        0.0000           -0.1854516              -5.0464
        99        0.0000           -0.1825080              -4.9663
       100                         -0.0914944              -2.4897
       101                         -0.0670408              -1.8243
       ...                                ...                  ...
       171                          0.9670194              26.3139
      -------------------------------------------------------------
                  HL-Gap            0.0338335 Eh            0.9207 eV

     #   Z          covCN         q      C6AA      α(0)
     1   7 N        1.772    -0.213    26.438     7.614
     2   6 C        1.918     0.115    28.273     8.587
     3   6 C        2.954    -0.022    28.551     8.764
     4   6 C        2.982     0.015    27.681     8.630
     5   6 C        2.919    -0.077    29.927     8.971
     6   6 C        2.861     0.133    25.093     8.211
     7   8 O        1.706    -0.227    17.772     5.692
     8   6 C        3.644     0.027    20.461     6.502
     9   6 C        2.864     0.130    25.151     8.220
    10   8 O        1.706    -0.224    17.719     5.683
    11   6 C        3.645     0.026    20.464     6.501
    12   6 C        2.912    -0.070    29.747     8.943
    13   6 C        2.923    -0.050    29.242     8.868
    14   6 C        2.836    -0.090    30.243     9.012
    15   6 C        3.795    -0.056    21.578     6.615
    16   6 C        3.745    -0.007    20.781     6.503
    17   7 N        2.726    -0.091    23.022     7.126
    18   6 C        3.747    -0.007    20.771     6.501
    19   6 C        3.806    -0.071    21.859     6.656
    20   6 C        2.968     0.007    27.857     8.657
    21   6 C        2.922    -0.045    29.114     8.848
    22   6 C        2.913    -0.066    29.638     8.927
    23   6 C        2.864     0.135    25.056     8.205
    24   8 O        1.706    -0.217    17.610     5.666
    25   6 C        3.645     0.024    20.504     6.508
    26   6 C        2.862     0.135    25.052     8.204
    27   8 O        1.706    -0.220    17.659     5.674
    28   6 C        3.645     0.026    20.472     6.503
    29   6 C        2.919    -0.077    29.927     8.971
    30   6 C        3.700    -0.051    21.655     6.655
    31   6 C        3.859    -0.001    20.552     6.447
    32   6 C        3.757    -0.108    22.609     6.779
    33   6 C        3.755    -0.112    22.700     6.793
    34   1 H        0.926     0.056     2.244     2.343
    35   1 H        0.924     0.055     2.260     2.351
    36   1 H        0.925     0.082     1.958     2.188
    37   1 H        0.924     0.050     2.315     2.379
    38   1 H        0.924     0.057     2.238     2.340
    39   1 H        0.925     0.082     1.954     2.186
    40   1 H        0.924     0.047     2.352     2.398
    41   1 H        0.926     0.054     2.275     2.359
    42   1 H        0.926     0.041     2.434     2.440
    43   1 H        0.926     0.048     2.342     2.393
    44   1 H        0.926     0.060     2.195     2.317
    45   1 H        0.924     0.066     2.127     2.281
    46   1 H        0.925     0.055     2.256     2.349
    47   1 H        0.924     0.055     2.255     2.348
    48   1 H        0.924     0.062     2.177     2.307
    49   1 H        0.924     0.055     2.259     2.350
    50   1 H        0.924     0.055     2.254     2.348
    51   1 H        0.925     0.050     2.315     2.380
    52   1 H        0.924     0.052     2.290     2.367
    53   1 H        0.926     0.050     2.318     2.381
    54   1 H        0.926     0.060     2.202     2.321
    55   1 H        0.924     0.057     2.238     2.340
    56   1 H        0.924     0.058     2.227     2.333
    57   1 H        0.925     0.083     1.944     2.180
    58   1 H        0.925     0.083     1.951     2.184
    59   1 H        0.924     0.052     2.297     2.370
    60   1 H        0.924     0.055     2.262     2.352
    61   1 H        0.926     0.051     2.307     2.375
    62   1 H        0.923     0.049     2.338     2.391
    63   1 H        0.925     0.056     2.251     2.346
    64   1 H        0.925     0.061     2.186     2.312
    65   1 H        0.924     0.050     2.319     2.382
    66   1 H        0.925     0.044     2.395     2.420
    67   1 H        0.925     0.044     2.402     2.424
    68   1 H        0.925     0.055     2.261     2.352
    69   1 H        0.925     0.042     2.426     2.436
    70   1 H        0.925     0.043     2.412     2.428
    71   1 H        0.925     0.054     2.271     2.357
    72   1 H        0.860     0.202     1.097     1.641

Wiberg/Mayer (AO) data.
largest (>0.10) Wiberg bond orders for each atom

     #   Z sym  total        # sym  WBO       # sym  WBO       # sym  WBO
 ---------------------------------------------------------------------------
     1   7 N    3.238 --     2 C    2.103    72 H    0.903     3 C    0.125
     2   6 C    3.847 --     1 N    2.103     3 C    1.604
     3   6 C    3.857 --     2 C    1.604     4 C    1.075    31 C    0.953
                             1 N    0.125
     4   6 C    3.943 --    13 C    1.343     5 C    1.336     3 C    1.075
     5   6 C    3.945 --     6 C    1.408     4 C    1.336    34 H    0.955
     6   6 C    3.900 --     5 C    1.408     9 C    1.214     7 O    1.103
     7   8 O    2.254 --     6 C    1.103     8 C    0.977
     8   6 C    3.930 --     7 O    0.977    36 H    0.977    37 H    0.973
                            35 H    0.973
     9   6 C    3.867 --    12 C    1.370     6 C    1.214    10 O    1.106
    10   8 O    2.246 --     9 C    1.106    11 C    0.978
    11   6 C    3.930 --    10 O    0.978    39 H    0.977    40 H    0.973
                            38 H    0.973
    12   6 C    3.961 --    13 C    1.438     9 C    1.370    41 H    0.963
    13   6 C    3.920 --    12 C    1.438     4 C    1.343    42 H    0.967
    14   6 C    3.219 --    15 C    1.158    43 H    0.983    44 H    0.982
    15   6 C    3.962 --    14 C    1.158    46 H    0.969    45 H    0.941
                            16 C    0.868
    16   6 C    3.906 --    17 N    1.054    48 H    0.968    47 H    0.960
                            15 C    0.868
    17   7 N    3.211 --    16 C    1.054    30 C    1.018    18 C    1.014
    18   6 C    3.964 --    17 N    1.014    50 H    0.970    49 H    0.963
                            19 C    0.957
    19   6 C    3.972 --    20 C    1.016    52 H    0.969    51 H    0.969
                            18 C    0.957
    20   6 C    3.929 --    21 C    1.394    29 C    1.380    19 C    1.016
    21   6 C    3.931 --    22 C    1.423    20 C    1.394    53 H    0.967
    22   6 C    3.951 --    21 C    1.423    23 C    1.376    54 H    0.963
    23   6 C    3.875 --    22 C    1.376    26 C    1.211    24 O    1.114
    24   8 O    2.247 --    23 C    1.114    25 C    0.975
    25   6 C    3.926 --    57 H    0.976    24 O    0.975    56 H    0.972
                            55 H    0.971
    26   6 C    3.883 --    29 C    1.392    23 C    1.211    27 O    1.108
    27   8 O    2.249 --    26 C    1.108    28 C    0.978
    28   6 C    3.929 --    27 O    0.978    58 H    0.977    59 H    0.972
                            60 H    0.972
    29   6 C    3.951 --    26 C    1.392    20 C    1.380    61 H    0.962
    30   6 C    3.970 --    17 N    1.018    64 H    0.977    63 H    0.975
                            62 H    0.959
    31   6 C    3.981 --    33 C    1.008    32 C    0.988     3 C    0.953
                            65 H    0.951
    32   6 C    3.978 --    31 C    0.988    66 H    0.985    67 H    0.985
                            68 H    0.980
    33   6 C    3.989 --    31 C    1.008    70 H    0.985    69 H    0.984
                            71 H    0.983
    34   1 H    0.995 --     5 C    0.955
    35   1 H    0.992 --     8 C    0.973
    36   1 H    0.993 --     8 C    0.977
    37   1 H    0.993 --     8 C    0.973
    38   1 H    0.992 --    11 C    0.973
    39   1 H    0.993 --    11 C    0.977
    40   1 H    0.992 --    11 C    0.973
    41   1 H    0.995 --    12 C    0.963
    42   1 H    0.998 --    13 C    0.967
    43   1 H    0.997 --    14 C    0.983
    44   1 H    0.995 --    14 C    0.982
    45   1 H    0.969 --    15 C    0.941
    46   1 H    0.993 --    15 C    0.969
    47   1 H    0.991 --    16 C    0.960
    48   1 H    0.993 --    16 C    0.968
    49   1 H    0.987 --    18 C    0.963
    50   1 H    0.996 --    18 C    0.970
    51   1 H    0.995 --    19 C    0.969
    52   1 H    0.995 --    19 C    0.969
    53   1 H    0.996 --    21 C    0.967
    54   1 H    0.994 --    22 C    0.963
    55   1 H    0.990 --    25 C    0.971
    56   1 H    0.990 --    25 C    0.972
    57   1 H    0.992 --    25 C    0.976
    58   1 H    0.992 --    28 C    0.977
    59   1 H    0.991 --    28 C    0.972
    60   1 H    0.991 --    28 C    0.972
    61   1 H    0.996 --    29 C    0.962
    62   1 H    0.981 --    30 C    0.959
    63   1 H    0.993 --    30 C    0.975
    64   1 H    0.992 --    30 C    0.977
    65   1 H    0.992 --    31 C    0.951
    66   1 H    0.997 --    32 C    0.985
    67   1 H    0.997 --    32 C    0.985
    68   1 H    0.994 --    32 C    0.980
    69   1 H    0.997 --    33 C    0.984
    70   1 H    0.997 --    33 C    0.985
    71   1 H    0.995 --    33 C    0.983
    72   1 H    0.945 --     1 N    0.903
 ---------------------------------------------------------------------------

molecular dipole:
                 x           y           z       tot (Debye)
 q only:        0.217       0.337       0.170
   full:        0.050       0.417       0.338       1.371

           -------------------------------------------------
          | TOTAL ENERGY              -99.341008091913 Eh   |
          | GRADIENT NORM               0.001515635478 Eh/α |
          | HOMO-LUMO GAP               0.920655356836 eV   |
           -------------------------------------------------

 * finished run on 2024/04/06 at 11:13:12.456
