   * xtb version 6.6.1 (8d0f1dd) compiled by 'conda@1efc2f54142f' on 2023-08-01
          program call               : xtb xtbopt.xyz --opt crude --input .xc2 --gfn2

   ID    Z sym.   atoms
    1    6 C      1, 3, 5-7, 10, 11, 14
    2    7 N      2, 4, 9, 13
    3    8 O      8, 12
    4    1 H      15-25

          :  Hamiltonian                  GFN2-xTB          :
 * total energy  :   -42.1459160 Eh     change       -0.2700062E-12 Eh
   *** GEOMETRY OPTIMIZATION CONVERGED AFTER 1 ITERATIONS ***

 final structure:
================
25
 xtb: 6.6.1 (8d0f1dd)
C            3.78193217506316        0.85596670337998        0.10800862099251
N            2.81757222436447       -0.20564368608488        0.05600908306365
C            3.05330175370461       -1.49957682755274       -0.04075800888204
N            1.91280099941595       -2.19539208107426       -0.07500730187433
C            0.79879957772307       -1.32225272118868       -0.00942415398964
C            1.42617798071910        0.00156902359690        0.08950536471809
C            0.80508347933001        1.16585889137632        0.21380737797268
O            0.20901516425054        2.15214351324909        0.31302585099101
N           -3.07831654310979        1.66506267217408        0.01559513949910
C           -3.62236830878382        2.91546698822398       -0.33123162840515
C           -3.20702187532170        0.58141260855318        0.48290197153027
O           -3.12544825533072       -0.49810074961669        0.89597204292288
N           -0.43060709243690       -1.55981563860207       -0.03436695035314
C           -1.07512260728763       -2.82390458597267       -0.10233506114597
H            3.68333275149127        1.41147053388295        1.04307098791324
H            4.78618361896213        0.44214016996479        0.04366855788513
H            3.62504436399447        1.54700296118506       -0.72283730371425
H            4.03532162683779       -1.93340578597141       -0.09049239294833
H           -2.79415044689405        3.61018862397309       -0.47494598524029
H           -4.18579818168488        2.83559537752338       -1.26380996767216
H           -4.27916586566394        3.29322655233299        0.45533062898685
H           -0.49767568532659       -3.64675612369649        0.33019969173878
H           -1.30257687470510       -3.05363628647929       -1.14600490381114
H           -2.02237008731881       -2.72160988654011        0.42737323956759
H            1.84648762210677       -3.19877170502873       -0.15208328184185

          :  Hamiltonian                  GFN2-xTB          :
         :: total energy             -42.145915992093 Eh    ::
         :: gradient norm              0.001696844613 Eh/a0 ::
         :: HOMO-LUMO gap              2.301977867622 eV    ::
         :: SCC energy               -42.767235741309 Eh    ::
         :: -> dispersion             -0.018508423618 Eh    ::
         :: repulsion energy           0.621283719219 Eh    ::

    * Orbital Energies and Occupations

         #    Occupation            Energy/Eh            Energy/eV
      -------------------------------------------------------------
         1        2.0000           -0.9074549             -24.6931
       ...           ...                  ...                  ...
        25        2.0000           -0.6485596             -17.6482
        26        2.0000           -0.6413831             -17.4529
        27        2.0000           -0.6396692             -17.4063
        28        1.9999           -0.6384380             -17.3728
        29        1.9998           -0.6136277             -16.6977
        30        1.9997           -0.6109192             -16.6240
        31        1.9997           -0.6098827             -16.5958
        32        1.9995           -0.6034485             -16.4207
        33        1.9990           -0.5919768             -16.1085
        34        1.9414           -0.5267374             -14.3333
        35        1.9289           -0.5235848             -14.2475
        36        1.9199           -0.5216177             -14.1939
        37        1.8952           -0.5171490             -14.0723 (HOMO)
        38        0.1592           -0.4325528             -11.7704 (LUMO)
        39        0.1549           -0.4320823             -11.7576
        40        0.0030           -0.3681398             -10.0176
        41        0.0000           -0.2919884              -7.9454
        42        0.0000           -0.2855762              -7.7709
        43        0.0000           -0.2712858              -7.3821
        44                         -0.1783485              -4.8531
        45                         -0.1462902              -3.9808
        46                         -0.0854102              -2.3241
        47                         -0.0585710              -1.5938
        48                         -0.0462097              -1.2574
       ...                                ...                  ...
        67                          1.2336657              33.5698
      -------------------------------------------------------------
                  HL-Gap            0.0845961 Eh            2.3020 eV

     #   Z          covCN         q      C6AA      α(0)
     1   6 C        3.691    -0.084    22.291     6.756
     2   7 N        2.800     0.059    20.217     6.678
     3   6 C        2.955     0.079    26.233     8.401
     4   7 N        2.770    -0.092    23.026     7.127
     5   6 C        2.921     0.154    24.664     8.144
     6   6 C        3.039    -0.021    28.497     8.756
     7   6 C        1.844     0.251    25.351     8.134
     8   8 O        0.856    -0.122    16.838     5.502
     9   7 N        1.820    -0.147    24.956     7.402
    10   6 C        3.685    -0.032    21.342     6.614
    11   6 C        1.770     0.310    24.262     7.963
    12   8 O        0.856    -0.258    19.047     5.851
    13   7 N        1.824    -0.201    26.199     7.584
    14   6 C        3.697    -0.040    21.459     6.626
    15   1 H        0.924     0.101     1.774     2.083
    16   1 H        0.925     0.102     1.764     2.077
    17   1 H        0.924     0.101     1.778     2.085
    18   1 H        0.926     0.113     1.668     2.019
    19   1 H        0.924     0.095     1.834     2.118
    20   1 H        0.924     0.088     1.896     2.153
    21   1 H        0.924     0.085     1.927     2.171
    22   1 H        0.924     0.046     2.367     2.406
    23   1 H        0.924     0.084     1.938     2.177
    24   1 H        0.925     0.110     1.698     2.038
    25   1 H        0.860     0.218     1.019     1.581

Wiberg/Mayer (AO) data.
largest (>0.10) Wiberg bond orders for each atom

     #   Z sym  total        # sym  WBO       # sym  WBO       # sym  WBO
 ---------------------------------------------------------------------------
     1   6 C    3.935 --     2 N    0.994    16 H    0.974    17 H    0.963
                            15 H    0.963
     2   7 N    3.618 --     3 C    1.401     6 C    1.042     1 C    0.994
                             4 N    0.113
     3   6 C    3.841 --     2 N    1.401     4 N    1.320    18 H    0.949
     4   7 N    3.534 --     3 C    1.320     5 C    1.026    25 H    0.923
                             2 N    0.113
     5   6 C    3.928 --    13 N    1.717     6 C    1.035     4 N    1.026
     6   6 C    3.870 --     7 C    1.483     2 N    1.042     5 C    1.035
                             8 O    0.152
     7   6 C    3.703 --     8 O    2.078     6 C    1.483
     8   8 O    2.353 --     7 C    2.078     6 C    0.152
     9   7 N    3.358 --    11 C    1.984    10 C    1.022    12 O    0.351
    10   6 C    3.924 --     9 N    1.022    19 H    0.960    21 H    0.953
                            20 H    0.951
    11   6 C    3.936 --     9 N    1.984    12 O    1.884
    12   8 O    2.277 --    11 C    1.884     9 N    0.351
    13   7 N    3.031 --     5 C    1.717    14 C    1.037
    14   6 C    3.942 --    13 N    1.037    22 H    0.962    24 H    0.951
                            23 H    0.943
    15   1 H    0.987 --     1 C    0.963
    16   1 H    0.989 --     1 C    0.974
    17   1 H    0.987 --     1 C    0.963
    18   1 H    0.984 --     3 C    0.949
    19   1 H    0.980 --    10 C    0.960
    20   1 H    0.976 --    10 C    0.951
    21   1 H    0.977 --    10 C    0.953
    22   1 H    0.980 --    14 C    0.962
    23   1 H    0.979 --    14 C    0.943
    24   1 H    0.973 --    14 C    0.951
    25   1 H    0.950 --     4 N    0.923
 ---------------------------------------------------------------------------

molecular dipole:
                 x           y           z       tot (Debye)
 q only:        2.701      -0.377      -0.398
   full:        2.980      -0.783      -0.419       7.903

           -------------------------------------------------
          | TOTAL ENERGY              -42.145915992093 Eh   |
          | GRADIENT NORM               0.001696844613 Eh/α |
          | HOMO-LUMO GAP               2.301977867622 eV   |
           -------------------------------------------------

 * finished run on 2024/06/05 at 20:00:12.591
