   * xtb version 6.6.1 (8d0f1dd) compiled by 'conda@1efc2f54142f' on 2023-08-01
          program call               : xtb xtbopt.xyz --opt crude --input .xc2 --gfn2

   ID    Z sym.   atoms
    1    6 C      1, 3, 5-7, 10, 11, 14
    2    7 N      2, 4, 9, 13
    3    8 O      8, 12
    4    1 H      15-25
########################################################################
[WARNING] Please study the warnings concerning your input carefully
-1- readin_getIntValue: could not parse ''
########################################################################

          :  Hamiltonian                  GFN2-xTB          :
 * total energy  :   -42.0444411 Eh     change       -0.7482015E-11 Eh
   *** GEOMETRY OPTIMIZATION CONVERGED AFTER 1 ITERATIONS ***

 final structure:
================
25
 xtb: 6.6.1 (8d0f1dd)
C            2.93375529147553        1.16318779869819       -0.14043707674533
N            2.04651070476350        0.03505597921634       -0.12985680054459
C            2.36815070841275       -1.23272310405327       -0.37240505104092
N            1.27996500487408       -1.99990516580780       -0.28997712219890
C            0.18351437854503       -1.22883545721098        0.05870437784985
C            0.66803478664598        0.11588376408281        0.14104107564935
C            0.06787880907612        1.29629456161051        0.41332244355553
O            0.45367968593967        2.56639939984569        0.65116307196830
N           -0.89425123001891        2.07359419267308        0.98955412371873
C           -1.97187923934913        2.64878611872778        0.22890158992631
C           -1.85358309239425       -1.13803555616019       -1.03830395150139
O           -1.95005498747183       -0.13297970633950       -1.64831279672139
N           -1.12338387011293       -1.70085046151647       -0.10502306459693
C           -1.51422366575911       -2.96455820207052        0.50737034278341
H            2.92442951219532        1.65843291364269        0.83168274038684
H            3.94272633987448        0.82917322611944       -0.36799713611491
H            2.61434449338702        1.88906976584809       -0.88972230392024
H            3.35821326175953       -1.58576061623844       -0.58320500827211
H           -2.25509757294485        3.57967275714666        0.71527832770906
H           -1.71494222592425        2.83620940803565       -0.81581681453293
H           -2.80412135908994        1.94897733222024        0.27914271953420
H           -1.05699132154699       -3.03207668259311        1.49294712448896
H           -1.20947179557764       -3.82052647741119       -0.09714480888121
H           -2.59655687182167       -2.98539808154894        0.61552480702372
H            1.26378576916269       -3.00084916531777       -0.41525919162248

          :  Hamiltonian                  GFN2-xTB          :
         :: total energy             -42.044441088596 Eh    ::
         :: gradient norm              0.006901351923 Eh/a0 ::
         :: HOMO-LUMO gap              0.955413823446 eV    ::
         :: SCC energy               -42.556907665138 Eh    ::
         :: -> dispersion             -0.021721559473 Eh    ::
         :: repulsion energy           0.512262722207 Eh    ::

    * Orbital Energies and Occupations

         #    Occupation            Energy/Eh            Energy/eV
      -------------------------------------------------------------
         1        2.0000           -0.8940621             -24.3287
       ...           ...                  ...                  ...
        25        2.0000           -0.6768507             -18.4180
        26        2.0000           -0.6669446             -18.1485
        27        2.0000           -0.6617287             -18.0066
        28        2.0000           -0.6497814             -17.6815
        29        2.0000           -0.6341355             -17.2557
        30        1.9999           -0.6292594             -17.1230
        31        1.9998           -0.6126627             -16.6714
        32        1.9997           -0.6044370             -16.4476
        33        1.9996           -0.5986785             -16.2909
        34        1.9993           -0.5910207             -16.0825
        35        1.9980           -0.5737457             -15.6124
        36        1.9798           -0.5368677             -14.6089
        37        1.4927           -0.4813884             -13.0992 (HOMO)
        38        0.4853           -0.4462776             -12.1438 (LUMO)
        39        0.0398           -0.4025900             -10.9550
        40        0.0058           -0.3717581             -10.1161
        41        0.0003           -0.3253137              -8.8522
        42        0.0001           -0.3066223              -8.3436
        43        0.0000           -0.2106365              -5.7317
        44                         -0.1901041              -5.1730
        45                         -0.1621140              -4.4113
        46                         -0.1138704              -3.0986
        47                         -0.0697365              -1.8976
        48                         -0.0498272              -1.3559
       ...                                ...                  ...
        67                          0.6489731              17.6595
      -------------------------------------------------------------
                  HL-Gap            0.0351108 Eh            0.9554 eV

     #   Z          covCN         q      C6AA      α(0)
     1   6 C        3.691    -0.082    22.255     6.751
     2   7 N        2.826     0.044    20.464     6.719
     3   6 C        2.974     0.058    26.685     8.474
     4   7 N        2.782    -0.059    22.376     7.026
     5   6 C        3.005     0.048    26.898     8.508
     6   6 C        3.030     0.009    27.798     8.648
     7   6 C        2.759     0.176    24.199     8.056
     8   8 O        1.748    -0.229    17.786     5.695
     9   7 N        2.711    -0.014    21.533     6.892
    10   6 C        3.690    -0.055    21.757     6.676
    11   6 C        1.825     0.219    26.028     8.243
    12   8 O        0.856    -0.220    18.398     5.751
    13   7 N        2.729    -0.008    21.420     6.874
    14   6 C        3.700    -0.077    22.141     6.729
    15   1 H        0.924     0.111     1.690     2.033
    16   1 H        0.925     0.097     1.816     2.107
    17   1 H        0.924     0.107     1.725     2.054
    18   1 H        0.926     0.115     1.657     2.013
    19   1 H        0.925     0.098     1.799     2.097
    20   1 H        0.924     0.073     2.051     2.240
    21   1 H        0.925     0.087     1.911     2.162
    22   1 H        0.925     0.096     1.826     2.113
    23   1 H        0.924     0.082     1.956     2.187
    24   1 H        0.925     0.104     1.748     2.068
    25   1 H        0.860     0.220     1.009     1.574

Wiberg/Mayer (AO) data.
largest (>0.10) Wiberg bond orders for each atom

     #   Z sym  total        # sym  WBO       # sym  WBO       # sym  WBO
 ---------------------------------------------------------------------------
     1   6 C    3.931 --     2 N    0.995    16 H    0.974    17 H    0.960
                            15 H    0.959
     2   7 N    3.584 --     3 C    1.350     6 C    1.066     1 C    0.995
     3   6 C    3.822 --     2 N    1.350     4 N    1.322    18 H    0.952
     4   7 N    3.571 --     3 C    1.322     5 C    1.139    25 H    0.923
     5   6 C    3.657 --     6 C    1.195     4 N    1.139    13 N    1.022
     6   6 C    3.913 --     7 C    1.433     5 C    1.195     2 N    1.066
     7   6 C    3.643 --     6 C    1.433     9 N    1.067     8 O    1.007
     8   8 O    2.026 --     7 C    1.007     9 N    0.884
     9   7 N    3.039 --     7 C    1.067    10 C    1.001     8 O    0.884
    10   6 C    3.940 --     9 N    1.001    20 H    0.970    19 H    0.969
                            21 H    0.958
    11   6 C    3.420 --    12 O    1.921    13 N    1.318
    12   8 O    2.175 --    11 C    1.921    13 N    0.158
    13   7 N    3.524 --    11 C    1.318     5 C    1.022    14 C    0.963
                            12 O    0.158
    14   6 C    3.926 --    22 H    0.976    24 H    0.974    23 H    0.972
                            13 N    0.963
    15   1 H    0.982 --     1 C    0.959
    16   1 H    0.990 --     1 C    0.974
    17   1 H    0.983 --     1 C    0.960
    18   1 H    0.985 --     3 C    0.952
    19   1 H    0.988 --    10 C    0.969
    20   1 H    0.988 --    10 C    0.970
    21   1 H    0.992 --    10 C    0.958
    22   1 H    0.991 --    14 C    0.976
    23   1 H    0.992 --    14 C    0.972
    24   1 H    0.988 --    14 C    0.974
    25   1 H    0.951 --     4 N    0.923
 ---------------------------------------------------------------------------

molecular dipole:
                 x           y           z       tot (Debye)
 q only:        1.312      -2.230       0.069
   full:        1.504      -2.510      -0.268       7.470

           -------------------------------------------------
          | TOTAL ENERGY              -42.044441088596 Eh   |
          | GRADIENT NORM               0.006901351923 Eh/α |
          | HOMO-LUMO GAP               0.955413823446 eV   |
           -------------------------------------------------

 * finished run on 2024/06/05 at 19:58:26.552
