   * xtb version 6.6.1 (8d0f1dd) compiled by 'conda@1efc2f54142f' on 2023-08-01
          program call               : xtb struc.xyz --opt loose --input .xc1 --gfn2

   ID    Z sym.   atoms
    1    6 C      1, 3, 5-7, 10, 11, 14
    2    7 N      2, 4, 9, 13
    3    8 O      8, 12
    4    1 H      15-25
constraining bond 6 25 to    3.7133300 Å, actual value:    3.1881491 Å

          :  Hamiltonian                  GFN2-xTB          :
 * total energy  :   -42.7377599 Eh     change       -0.6633627E-10 Eh
 * total energy  :   -44.6615446 Eh     change       -0.1923785E+01 Eh
 * total energy  :   -47.3394293 Eh     change       -0.2677885E+01 Eh
 * total energy  :   -50.4905576 Eh     change       -0.3151128E+01 Eh
 * total energy  :   -54.0220656 Eh     change       -0.3531508E+01 Eh
 * total energy  :   -56.8252871 Eh     change       -0.2803222E+01 Eh
 * total energy  :   -57.9038365 Eh     change       -0.1078549E+01 Eh
 * total energy  :   -58.8354674 Eh     change       -0.9316308E+00 Eh
 * total energy  :   -58.7912057 Eh     change        0.4426169E-01 Eh
 * total energy  :   -56.1236092 Eh     change        0.2667596E+01 Eh
 * total energy  :   -59.7129850 Eh     change       -0.7209387E-04 Eh
 * total energy  :   -59.7130614 Eh     change       -0.7632720E-04 Eh
 * total energy  :   -59.7131028 Eh     change       -0.4142013E-04 Eh
 * total energy  :   -59.7131284 Eh     change       -0.2566042E-04 Eh
 * total energy  :   -59.7131519 Eh     change       -0.2342359E-04 Eh
 * total energy  :   -59.7131736 Eh     change       -0.2171393E-04 Eh
 * total energy  :   -59.7132028 Eh     change       -0.2919871E-04 Eh
 * total energy  :   -59.7132216 Eh     change       -0.1881778E-04 Eh
 * total energy  :   -59.7132466 Eh     change       -0.2498245E-04 Eh
   *** GEOMETRY OPTIMIZATION CONVERGED AFTER 90 ITERATIONS ***

 final structure:
================
25
 xtb: 6.6.1 (8d0f1dd)
C            5.15532773469337        0.56499342369481       -0.55499255590030
N            3.83234108468169        0.11203442808130       -0.53189633644183
C            3.01236850219934        0.06367126389662        0.43803454288538
N            1.73149770494692       -0.16870963734025        0.37903277592823
C           -0.49895944378962       -0.58802707287663        0.13987060141276
C            0.85532336784471       -1.12513884717660        0.16326184327570
C           -0.89850482605678        0.83912595696903        0.34414003067260
O           -0.19750298772032        1.78173089608970        0.58237777154527
N           -2.27188292337529        0.83254971622705        0.19280758643067
C           -3.11083874140768        2.00707812994900        0.30681924038076
C           -2.75323329413530       -0.41763635614878       -0.08082167584123
O           -3.86794817776621       -0.78903541556968       -0.26634400084751
N           -1.60041843142928       -1.28629873340123       -0.10961271013369
C           -1.73575830039082       -2.68488868804311       -0.38636224758022
H            5.61912935245763        0.63947312641092        0.43646331429623
H            5.73486090278064       -0.12964640473048       -1.16860469670787
H            5.19188831429596        1.54477411084514       -1.04040073239273
H            3.31360422407299        0.38710078823766        1.45105495293646
H           -2.45954338475310        2.87518347541910        0.38268711683830
H           -3.74868858257727        2.08967596032529       -0.57211948930814
H           -3.73841588352312        1.93607676445831        1.19517714026592
H           -1.33942011823499       -3.28255595814215        0.43600445733361
H           -1.20479339525758       -2.95025549590339       -1.30253328210415
H           -2.79848429962439       -2.89541764627142       -0.51160672678376
H            0.93848311617399       -1.53761924340035        0.10873469773522

          :  Hamiltonian                  GFN2-xTB          :
         :: total energy             -59.713246573024 Eh    ::
         :: gradient norm              0.002659926357 Eh/a0 ::
         :: HOMO-LUMO gap              0.561899954123 eV    ::
         :: SCC energy               -42.679769515221 Eh    ::
         :: -> dispersion             -0.019592631535 Eh    ::
         :: repulsion energy           2.281994333416 Eh    ::

    * Orbital Energies and Occupations

         #    Occupation            Energy/Eh            Energy/eV
      -------------------------------------------------------------
         1        2.0000           -0.8962374             -24.3879
       ...           ...                  ...                  ...
        25        2.0000           -0.6686419             -18.1947
        26        2.0000           -0.6545052             -17.8100
        27        2.0000           -0.6423349             -17.4788
        28        2.0000           -0.6374626             -17.3462
        29        2.0000           -0.6318916             -17.1946
        30        2.0000           -0.6208033             -16.8929
        31        2.0000           -0.6142459             -16.7145
        32        1.9999           -0.6118974             -16.6506
        33        1.9997           -0.5978082             -16.2672
        34        1.9953           -0.5764572             -15.6862
        35        1.9888           -0.5696646             -15.5014
        36        1.7940           -0.5457702             -14.8512
        37        1.6738           -0.5415803             -14.7372 (HOMO)
        38        0.5485           -0.5209309             -14.1753 (LUMO)
        39        0.0000           -0.4412019             -12.0057
        40                         -0.3773905             -10.2693
        41                         -0.3538981              -9.6301
        42                         -0.3298763              -8.9764
        43                         -0.1928085              -5.2466
        44                         -0.1472646              -4.0073
        45                         -0.1052352              -2.8636
        46                         -0.0725089              -1.9731
        47                         -0.0355303              -0.9668
        48                         -0.0203862              -0.5547
       ...                                ...                  ...
        67                         10.5566759             287.2618
      -------------------------------------------------------------
                  HL-Gap            0.0206494 Eh            0.5619 eV

     #   Z          covCN         q      C6AA      α(0)
     1   6 C        3.695    -0.051    21.663     6.659
     2   7 N        1.830    -0.111    24.196     7.289
     3   6 C        2.762     0.135    25.026     8.192
     4   7 N        1.893    -0.077    23.479     7.183
     5   6 C        3.023     0.035    27.183     8.552
     6   6 C        2.827     0.013    27.717     8.627
     7   6 C        2.844     0.272    22.422     7.760
     8   8 O        0.857    -0.303    19.844     5.973
     9   7 N        2.787    -0.075    22.690     7.075
    10   6 C        3.690    -0.061    21.874     6.693
    11   6 C        2.823     0.320    21.563     7.609
    12   8 O        0.857    -0.305    19.867     5.976
    13   7 N        2.783    -0.005    21.358     6.864
    14   6 C        3.690    -0.077    22.168     6.738
    15   1 H        0.924     0.093     1.854     2.129
    16   1 H        0.924     0.119     1.619     1.990
    17   1 H        0.924     0.115     1.653     2.011
    18   1 H        0.922     0.131     1.526     1.932
    19   1 H        0.925     0.109     1.704     2.041
    20   1 H        0.925     0.100     1.784     2.089
    21   1 H        0.925     0.098     1.804     2.100
    22   1 H        0.924     0.107     1.722     2.052
    23   1 H        0.924     0.108     1.713     2.047
    24   1 H        0.924     0.126     1.562     1.954
    25   1 H        0.975     0.183     1.187     1.703

Wiberg/Mayer (AO) data.
largest (>0.10) Wiberg bond orders for each atom

     #   Z sym  total        # sym  WBO       # sym  WBO       # sym  WBO
 ---------------------------------------------------------------------------
     1   6 C    3.897 --     2 N    1.082    16 H    0.928    17 H    0.924
                            15 H    0.923
     2   7 N    2.914 --     3 C    1.616     1 C    1.082     4 N    0.140
     3   6 C    3.937 --     2 N    1.616     4 N    1.367    18 H    0.836
     4   7 N    3.186 --     6 C    1.570     3 C    1.367     2 N    0.140
     5   6 C    3.752 --    13 N    1.367     6 C    1.188     7 C    0.979
     6   6 C    3.885 --     4 N    1.570     5 C    1.188    25 H    0.939
     7   6 C    3.939 --     8 O    1.750     9 N    1.119     5 C    0.979
     8   8 O    2.057 --     7 C    1.750     9 N    0.141
     9   7 N    3.568 --    11 C    1.142     7 C    1.119    10 C    0.968
                             8 O    0.141    12 O    0.133
    10   6 C    3.917 --    19 H    0.972     9 N    0.968    20 H    0.968
                            21 H    0.966
    11   6 C    3.939 --    12 O    1.760     9 N    1.142    13 N    0.951
    12   8 O    2.082 --    11 C    1.760     9 N    0.133
    13   7 N    3.514 --     5 C    1.367    14 C    0.998    11 C    0.951
    14   6 C    3.917 --    13 N    0.998    24 H    0.965    22 H    0.950
                            23 H    0.948
    15   1 H    0.930 --     1 C    0.923
    16   1 H    0.959 --     1 C    0.928
    17   1 H    0.956 --     1 C    0.924
    18   1 H    0.897 --     3 C    0.836
    19   1 H    0.987 --    10 C    0.972
    20   1 H    0.987 --    10 C    0.968
    21   1 H    0.987 --    10 C    0.966
    22   1 H    0.974 --    14 C    0.950
    23   1 H    0.973 --    14 C    0.948
    24   1 H    0.984 --    14 C    0.965
    25   1 H    0.959 --     6 C    0.939
 ---------------------------------------------------------------------------

molecular dipole:
                 x           y           z       tot (Debye)
 q only:        1.824      -1.070       0.053
   full:        2.049      -1.225       0.270       6.106

           -------------------------------------------------
          | TOTAL ENERGY              -59.713246573024 Eh   |
          | GRADIENT NORM               0.002659926357 Eh/α |
          | HOMO-LUMO GAP               0.561899954123 eV   |
           -------------------------------------------------

 * finished run on 2024/06/05 at 19:58:14.494
