   * xtb version 6.6.1 (8d0f1dd) compiled by 'conda@1efc2f54142f' on 2023-08-01
          program call               : xtb xtbopt.xyz --opt crude --input .xc2 --gfn2

   ID    Z sym.   atoms
    1    6 C      1, 3, 5-7, 10, 11, 14
    2    7 N      2, 4, 9, 13
    3    8 O      8, 12
    4    1 H      15-25
########################################################################
[WARNING] Please study the warnings concerning your input carefully
-1- readin_getIntValue: could not parse ''
########################################################################

          :  Hamiltonian                  GFN2-xTB          :
 * total energy  :   -40.3978409 Eh     change       -0.6286882E-10 Eh
 * total energy  :   -42.0986561 Eh     change       -0.1700815E+01 Eh
 * total energy  :   -42.1214547 Eh     change       -0.2279854E-01 Eh
 * total energy  :   -42.1255534 Eh     change       -0.4098722E-02 Eh
 * total energy  :   -42.1276086 Eh     change       -0.2055261E-02 Eh
 * total energy  :   -42.1282006 Eh     change       -0.5920151E-03 Eh
 * total energy  :   -42.1289220 Eh     change       -0.7213899E-03 Eh
 * total energy  :   -42.1293850 Eh     change       -0.4629642E-03 Eh
 * total energy  :   -42.1296841 Eh     change       -0.2990625E-03 Eh
 * total energy  :   -42.1298148 Eh     change       -0.1307340E-03 Eh
   *** GEOMETRY OPTIMIZATION CONVERGED AFTER 10 ITERATIONS ***

 final structure:
================
25
 xtb: 6.6.1 (8d0f1dd)
C            5.19145080769966        0.55583140928227       -0.54810754372753
N            3.85579350662177        0.13564730537278       -0.54818326132894
C            3.03608419365457        0.08126619347198        0.41618657139732
N            1.73968341086324       -0.08860376029860        0.35553327992438
C           -0.51201632592251       -0.54362883679574        0.13417986565877
C            0.83781759625021       -0.96704862190066        0.15995373398497
C           -0.92891472075432        0.87706633172441        0.34442854910782
O           -0.24700923666257        1.83221216093229        0.58621301772270
N           -2.30335167784946        0.85106717047153        0.19802711739720
C           -3.16202874162286        2.01006492409009        0.31522812977679
C           -2.76637518230241       -0.40453065820621       -0.07542819913999
O           -3.87578134730618       -0.79125977460806       -0.26289642689007
N           -1.60229234058999       -1.26069509359335       -0.10619414969004
C           -1.72842704544604       -2.66107485356393       -0.37676028154749
H            5.62707017002378        0.64429087952632        0.45495641063917
H            5.77464921556467       -0.16218568523635       -1.12921535697946
H            5.25714268176218        1.52431810227886       -1.05245172206470
H            3.34541369162712        0.37016024388030        1.43817588660776
H           -2.52607395735636        2.88923121642023        0.39340700923364
H           -3.80087856097973        2.08308087135811       -0.56360435616725
H           -3.78718204444651        1.92551599138432        1.20389614968819
H           -1.33805411218815       -3.25294543392422        0.45284759400255
H           -1.19218456431901       -2.93038097879661       -1.28856679127408
H           -2.79017668130769       -2.87520280927310       -0.50670822957502
H            1.05607277909199       -2.02395775239676        0.03625462113896

          :  Hamiltonian                  GFN2-xTB          :
         :: total energy             -42.129814806328 Eh    ::
         :: gradient norm              0.006348616044 Eh/a0 ::
         :: HOMO-LUMO gap              0.590014147956 eV    ::
         :: SCC energy               -42.677296604242 Eh    ::
         :: -> dispersion             -0.019531230571 Eh    ::
         :: repulsion energy           0.547549837833 Eh    ::

    * Orbital Energies and Occupations

         #    Occupation            Energy/Eh            Energy/eV
      -------------------------------------------------------------
         1        2.0000           -0.8963100             -24.3898
       ...           ...                  ...                  ...
        25        2.0000           -0.6667787             -18.1440
        26        2.0000           -0.6539865             -17.7959
        27        2.0000           -0.6418823             -17.4665
        28        2.0000           -0.6378331             -17.3563
        29        2.0000           -0.6308897             -17.1674
        30        2.0000           -0.6190935             -16.8464
        31        2.0000           -0.6138236             -16.7030
        32        1.9999           -0.6115638             -16.6415
        33        1.9997           -0.5979268             -16.2704
        34        1.9946           -0.5750764             -15.6486
        35        1.9888           -0.5692552             -15.4902
        36        1.8257           -0.5468400             -14.8803
        37        1.6819           -0.5414277             -14.7330 (HOMO)
        38        0.5095           -0.5197450             -14.1430 (LUMO)
        39        0.0000           -0.4285844             -11.6624
        40                         -0.3787717             -10.3069
        41                         -0.3505096              -9.5379
        42                         -0.3224760              -8.7750
        43                         -0.1928514              -5.2478
        44                         -0.1470722              -4.0020
        45                         -0.0979941              -2.6666
        46                         -0.0710003              -1.9320
        47                         -0.0439486              -1.1959
        48                         -0.0270496              -0.7361
       ...                                ...                  ...
        67                          0.5796596              15.7733
      -------------------------------------------------------------
                  HL-Gap            0.0216826 Eh            0.5900 eV

     #   Z          covCN         q      C6AA      α(0)
     1   6 C        3.696    -0.051    21.672     6.659
     2   7 N        1.829    -0.110    24.160     7.284
     3   6 C        2.766     0.134    25.048     8.196
     4   7 N        1.852    -0.054    23.021     7.111
     5   6 C        3.005     0.046    26.944     8.515
     6   6 C        2.827     0.071    26.407     8.421
     7   6 C        2.845     0.273    22.401     7.757
     8   8 O        0.857    -0.303    19.829     5.970
     9   7 N        2.787    -0.075    22.695     7.075
    10   6 C        3.691    -0.061    21.871     6.692
    11   6 C        2.826     0.321    21.562     7.609
    12   8 O        0.857    -0.306    19.886     5.979
    13   7 N        2.782    -0.003    21.312     6.856
    14   6 C        3.689    -0.076    22.153     6.736
    15   1 H        0.924     0.092     1.863     2.135
    16   1 H        0.924     0.117     1.639     2.002
    17   1 H        0.924     0.114     1.661     2.015
    18   1 H        0.922     0.130     1.538     1.939
    19   1 H        0.925     0.109     1.705     2.042
    20   1 H        0.925     0.100     1.785     2.090
    21   1 H        0.925     0.098     1.806     2.102
    22   1 H        0.924     0.106     1.727     2.055
    23   1 H        0.924     0.107     1.719     2.050
    24   1 H        0.924     0.127     1.555     1.950
    25   1 H        0.925     0.094     1.844     2.123

Wiberg/Mayer (AO) data.
largest (>0.10) Wiberg bond orders for each atom

     #   Z sym  total        # sym  WBO       # sym  WBO       # sym  WBO
 ---------------------------------------------------------------------------
     1   6 C    3.900 --     2 N    1.077    16 H    0.931    17 H    0.928
                            15 H    0.923
     2   7 N    2.941 --     3 C    1.647     1 C    1.077     4 N    0.141
     3   6 C    3.937 --     2 N    1.647     4 N    1.335    18 H    0.838
     4   7 N    3.222 --     6 C    1.630     3 C    1.335     2 N    0.141
     5   6 C    3.762 --    13 N    1.367     6 C    1.210     7 C    0.976
     6   6 C    3.924 --     4 N    1.630     5 C    1.210    25 H    0.924
     7   6 C    3.939 --     8 O    1.753     9 N    1.117     5 C    0.976
     8   8 O    2.059 --     7 C    1.753     9 N    0.141
     9   7 N    3.570 --    11 C    1.146     7 C    1.117    10 C    0.968
                             8 O    0.141    12 O    0.134
    10   6 C    3.917 --    19 H    0.972     9 N    0.968    20 H    0.968
                            21 H    0.966
    11   6 C    3.939 --    12 O    1.758     9 N    1.146    13 N    0.949
    12   8 O    2.081 --    11 C    1.758     9 N    0.134
    13   7 N    3.516 --     5 C    1.367    14 C    0.998    11 C    0.949
    14   6 C    3.918 --    13 N    0.998    24 H    0.964    22 H    0.950
                            23 H    0.948
    15   1 H    0.929 --     1 C    0.923
    16   1 H    0.962 --     1 C    0.931
    17   1 H    0.961 --     1 C    0.928
    18   1 H    0.898 --     3 C    0.838
    19   1 H    0.987 --    10 C    0.972
    20   1 H    0.987 --    10 C    0.968
    21   1 H    0.987 --    10 C    0.966
    22   1 H    0.974 --    14 C    0.950
    23   1 H    0.974 --    14 C    0.948
    24   1 H    0.983 --    14 C    0.964
    25   1 H    0.970 --     6 C    0.924
 ---------------------------------------------------------------------------

molecular dipole:
                 x           y           z       tot (Debye)
 q only:        1.802      -1.037       0.073
   full:        2.021      -1.303       0.286       6.156

           -------------------------------------------------
          | TOTAL ENERGY              -42.129814806328 Eh   |
          | GRADIENT NORM               0.006348616044 Eh/α |
          | HOMO-LUMO GAP               0.590014147956 eV   |
           -------------------------------------------------

 * finished run on 2024/06/05 at 19:58:14.901
