   * xtb version 6.6.1 (8d0f1dd) compiled by 'conda@1efc2f54142f' on 2023-08-01
          program call               : xtb xtbopt.xyz --opt crude --input .xc2 --gfn2

   ID    Z sym.   atoms
    1    6 C      1, 3, 5-7, 10, 11, 14
    2    7 N      2, 4, 9, 13
    3    8 O      8, 12
    4    1 H      15-25
########################################################################
[WARNING] Please study the warnings concerning your input carefully
-1- readin_getIntValue: could not parse ''
########################################################################

          :  Hamiltonian                  GFN2-xTB          :
 * total energy  :   -42.0130655 Eh     change       -0.2984279E-12 Eh
   *** GEOMETRY OPTIMIZATION CONVERGED AFTER 1 ITERATIONS ***

 final structure:
================
25
 xtb: 6.6.1 (8d0f1dd)
C            3.24840910397385        1.21940290581307        0.31326095109117
N            2.25530079277609        0.23993626866525        0.00353300113201
C            2.17802772179194       -0.97816602436710        0.76795616012284
N            1.24956106371691       -1.89136174054848        0.12418361552497
C            0.27275654014688       -0.97147732132120        0.07708149845079
C            1.06453798469847        0.05822125525115        0.81177287554470
C           -1.62245013002274        1.66093099979809       -1.68000122590523
O           -1.72565291913476        1.94689869834074       -2.78784815040456
N           -1.49685677364813        1.16528772057887       -0.53009359263546
C           -1.25801051658241        1.94424447053819        0.68803731752763
C           -2.00067046605749       -0.25132301430143       -0.37841949683671
O           -3.17359779188649       -0.45762009681096       -0.45336405325722
N           -1.01497442150645       -1.19486497245912       -0.25457858581445
C           -1.43237840210808       -2.58690028696098       -0.44442328025147
H            3.47359130496885        1.28074432809563        1.38403461708975
H            4.15958657705805        0.95902894161667       -0.22565612627972
H            2.89777423065388        2.19091802406300       -0.03247783139980
H            2.91928543286812       -1.30874935471256        1.47033498555130
H           -1.02122070675893        2.97203723735251        0.42419329669773
H           -2.14941696756031        1.92073167600322        1.31436784637569
H           -0.40716650116647        1.48807461378267        1.21194560613615
H           -1.06353996627166       -3.19760707100335        0.37804986424174
H           -1.04868302603949       -2.96574061097352       -1.39202839482226
H           -2.51956767920692       -2.62580875165530       -0.46066722502574
H            1.37578702939754       -2.79859935318556       -0.29802205495305

          :  Hamiltonian                  GFN2-xTB          :
         :: total energy             -42.013065491385 Eh    ::
         :: gradient norm              0.004541515243 Eh/a0 ::
         :: HOMO-LUMO gap              1.204192725475 eV    ::
         :: SCC energy               -42.525243505421 Eh    ::
         :: -> dispersion             -0.021216766459 Eh    ::
         :: repulsion energy           0.511920906907 Eh    ::

    * Orbital Energies and Occupations

         #    Occupation            Energy/Eh            Energy/eV
      -------------------------------------------------------------
         1        2.0000           -0.9438981             -25.6848
       ...           ...                  ...                  ...
        25        2.0000           -0.6721821             -18.2910
        26        2.0000           -0.6582255             -17.9112
        27        2.0000           -0.6511238             -17.7180
        28        1.9999           -0.6436632             -17.5150
        29        1.9999           -0.6343440             -17.2614
        30        1.9997           -0.6247027             -16.9990
        31        1.9995           -0.6152715             -16.7424
        32        1.9993           -0.6081878             -16.5496
        33        1.9991           -0.6052290             -16.4691
        34        1.9976           -0.5893533             -16.0371
        35        1.9962           -0.5817030             -15.8289
        36        1.8650           -0.5242795             -14.2664
        37        1.6008           -0.5046977             -13.7335 (HOMO)
        38        0.3937           -0.4604445             -12.5293 (LUMO)
        39        0.1398           -0.4417268             -12.0200
        40        0.0071           -0.3933374             -10.7033
        41        0.0026           -0.3772713             -10.2661
        42        0.0000           -0.2476208              -6.7381
        43        0.0000           -0.2432665              -6.6196
        44                         -0.1952428              -5.3128
        45                         -0.1604967              -4.3673
        46                         -0.1087873              -2.9603
        47                         -0.0833125              -2.2670
        48                         -0.0646918              -1.7604
       ...                                ...                  ...
        67                          0.9552823              25.9946
      -------------------------------------------------------------
                  HL-Gap            0.0442533 Eh            1.2042 eV

     #   Z          covCN         q      C6AA      α(0)
     1   6 C        3.689    -0.049    21.643     6.658
     2   7 N        2.746    -0.101    23.226     7.158
     3   6 C        4.157     0.097    18.902     6.175
     4   7 N        2.904    -0.120    23.604     7.216
     5   6 C        3.277     0.135    23.782     7.852
     6   6 C        3.083    -0.128    31.170     9.153
     7   6 C        1.814     0.318    24.059     7.926
     8   8 O        0.856    -0.099    16.504     5.447
     9   7 N        2.721    -0.029    21.801     6.935
    10   6 C        3.695    -0.082    22.244     6.747
    11   6 C        2.730     0.312    21.705     7.627
    12   8 O        0.857    -0.307    19.901     5.981
    13   7 N        2.731    -0.026    21.757     6.928
    14   6 C        3.711    -0.075    22.081     6.715
    15   1 H        0.924     0.070     2.087     2.259
    16   1 H        0.925     0.086     1.921     2.168
    17   1 H        0.925     0.084     1.941     2.179
    18   1 H        0.926     0.071     2.072     2.251
    19   1 H        0.925     0.107     1.723     2.053
    20   1 H        0.925     0.114     1.661     2.015
    21   1 H        0.923     0.122     1.598     1.977
    22   1 H        0.925     0.095     1.829     2.115
    23   1 H        0.924     0.092     1.860     2.133
    24   1 H        0.925     0.121     1.609     1.983
    25   1 H        0.860     0.193     1.141     1.674

Wiberg/Mayer (AO) data.
largest (>0.10) Wiberg bond orders for each atom

     #   Z sym  total        # sym  WBO       # sym  WBO       # sym  WBO
 ---------------------------------------------------------------------------
     1   6 C    3.943 --     2 N    1.024    17 H    0.967    16 H    0.961
                            15 H    0.954
     2   7 N    3.001 --     1 C    1.024     3 C    0.955     6 C    0.915
     3   6 C    3.809 --     4 N    0.970    18 H    0.958     2 N    0.955
                             6 C    0.858
     4   7 N    3.425 --     5 C    1.327     3 C    0.970    25 H    0.922
     5   6 C    3.741 --     4 N    1.327    13 N    1.211     6 C    1.061
     6   6 C    3.051 --     5 C    1.061     2 N    0.915     3 C    0.858
     7   6 C    3.692 --     8 O    2.077     9 N    1.518
     8   8 O    2.373 --     7 C    2.077     9 N    0.220
     9   7 N    3.557 --     7 C    1.518    10 C    0.918    11 C    0.797
                             8 O    0.220
    10   6 C    3.858 --    19 H    0.973    20 H    0.965    21 H    0.929
                             9 N    0.918
    11   6 C    3.818 --    12 O    1.764    13 N    1.149     9 N    0.797
    12   8 O    2.069 --    11 C    1.764    13 N    0.135
    13   7 N    3.594 --     5 C    1.211    11 C    1.149    14 C    0.948
                            12 O    0.135
    14   6 C    3.912 --    22 H    0.973    23 H    0.969    24 H    0.967
                            13 N    0.948
    15   1 H    0.963 --     1 C    0.954
    16   1 H    0.984 --     1 C    0.961
    17   1 H    0.988 --     1 C    0.967
    18   1 H    0.990 --     3 C    0.958
    19   1 H    0.987 --    10 C    0.973
    20   1 H    0.986 --    10 C    0.965
    21   1 H    0.984 --    10 C    0.929
    22   1 H    0.990 --    14 C    0.973
    23   1 H    0.990 --    14 C    0.969
    24   1 H    0.984 --    14 C    0.967
    25   1 H    0.957 --     4 N    0.922
 ---------------------------------------------------------------------------

molecular dipole:
                 x           y           z       tot (Debye)
 q only:        0.511      -0.214       0.058
   full:        0.905      -0.612      -0.039       2.778

           -------------------------------------------------
          | TOTAL ENERGY              -42.013065491385 Eh   |
          | GRADIENT NORM               0.004541515243 Eh/α |
          | HOMO-LUMO GAP               1.204192725475 eV   |
           -------------------------------------------------

 * finished run on 2024/06/05 at 20:00:14.007
