   * xtb version 6.6.1 (8d0f1dd) compiled by 'conda@1efc2f54142f' on 2023-08-01
          program call               : xtb struc.xyz --opt loose --input .xc1 --gfn2

   ID    Z sym.   atoms
    1    7 N      1, 17
    2    6 C      2-6, 8, 9, 11-16, 18-23, 25, 26, 28-33
    3    8 O      7, 10, 24, 27
    4    1 H      34-72
constraining bond 12 40 to    4.7133300 Å, actual value:    2.8600250 Å

          :  Hamiltonian                  GFN2-xTB          :
 * total energy  :  -100.0174146 Eh     change       -0.4035485E-08 Eh
 * total energy  :  -100.4838819 Eh     change       -0.4664673E+00 Eh
 * total energy  :  -101.0410651 Eh     change       -0.5571832E+00 Eh
 * total energy  :  -101.6873103 Eh     change       -0.6462452E+00 Eh
 * total energy  :   -96.7668846 Eh     change        0.4920426E+01 Eh
 * total energy  :  -101.7740223 Eh     change       -0.5007138E+01 Eh
 * total energy  :  -101.8319889 Eh     change       -0.5796664E-01 Eh
 * total energy  :  -101.8889701 Eh     change       -0.5698121E-01 Eh
 * total energy  :  -101.9112058 Eh     change       -0.2223568E-01 Eh
 * total energy  :  -101.9213538 Eh     change       -0.1014800E-01 Eh
 * total energy  :  -101.9835050 Eh     change       -0.1106191E-02 Eh
 * total energy  :  -101.9849422 Eh     change       -0.1437259E-02 Eh
 * total energy  :  -101.9855895 Eh     change       -0.6472712E-03 Eh
 * total energy  :  -101.9861627 Eh     change       -0.5731756E-03 Eh
 * total energy  :  -101.9863933 Eh     change       -0.2306346E-03 Eh
 * total energy  :  -101.9864989 Eh     change       -0.1055778E-03 Eh
 * total energy  :  -101.9865635 Eh     change       -0.6457912E-04 Eh
 * total energy  :  -101.9866193 Eh     change       -0.5577804E-04 Eh
 * total energy  :  -101.9866645 Eh     change       -0.4523722E-04 Eh
   *** GEOMETRY OPTIMIZATION CONVERGED AFTER 32 ITERATIONS ***

 final structure:
================
72
 xtb: 6.6.1 (8d0f1dd)
N           -1.85506578397814        2.64793314426673        2.26840806339053
C           -1.80205980000260        2.00946196796399        1.19508486337211
C           -2.96128773903133        1.81633475816730        0.25581335773464
C           -3.46103935848963        0.37873282846312        0.34845745506967
C           -4.42701085571216       -0.05913091006632       -0.60652832967204
C           -4.95677454180637       -1.33098728701563       -0.55713890654603
O           -5.88168990176414       -1.82389497643482       -1.41136233339502
C           -6.46088424225173       -0.96477809192906       -2.36643415746298
C           -4.54157062346732       -2.24352942088017        0.44311934460133
O           -5.10972904315069       -3.43323743138774        0.44377375869421
C           -4.92109144247710       -4.37641827531689        1.31642779502638
C           -3.56204292007788       -1.85879861418019        1.53067261554340
C           -3.03964958378027       -0.45744100624373        1.31998103739052
C           -2.42220807551304        2.10652966116624       -1.16727711678893
C           -1.49070166366307        1.01846206858789       -1.73212397846597
C           -0.14272622176540        1.02954213854452       -1.12033059846582
N            0.53816296928985       -0.04446716277651       -0.72466196620374
C            1.91747999287056        0.07531299425369       -0.31618381676011
C            2.89332186455849       -0.35506511872502       -1.42809741164494
C            4.30745166250549       -0.13387456373245       -0.96874543793331
C            4.93282735433659        1.08461249803949       -1.17223233113343
C            6.22357224134225        1.30518873934205       -0.71593254804327
C            6.91309423576514        0.30945910468372       -0.04033179819980
O            8.16564267680279        0.41142384554524        0.44566025935478
C            8.88136381534625        1.60911975007146        0.25042411281971
C            6.27819789372590       -0.94368148964607        0.17646136167560
O            7.02037252912183       -1.85543587037881        0.83918936262730
C            6.48684651654002       -3.13586680033463        1.07462164317781
C            4.98775098901776       -1.14082441615090       -0.28745970652615
C           -0.04574351697256       -1.36284466878016       -0.73590225093154
C           -4.16218417711969        2.75905379494001        0.56767287452605
C           -4.81674676610539        2.41674248790495        1.90434637188145
C           -3.77949669902888        4.23666116835202        0.54739134782318
H           -4.76126302059210        0.62656976545292       -1.36345299766778
H           -6.92935330486539       -0.09833915666729       -1.89139629090997
H           -7.22405594495059       -1.55846298550729       -2.86549343719210
H           -5.72596244265411       -0.62825980182273       -3.10373714694162
H           -4.27468716852626       -4.26996726839739        2.17135046752277
H           -5.48761527880874       -5.27130911161820        1.15119160575835
H           -3.00813429095665       -2.34797882532082        1.61566906637223
H           -4.16727290004240       -1.80213465075066        2.47264831072699
H           -2.32689476092467       -0.13008193361578        2.06144744539783
H           -3.26567149723648        2.21791978750853       -1.84747335518575
H           -1.88663209613196        3.05630558223102       -1.15248266005836
H           -1.96895300440162        0.04454708558809       -1.64395922406398
H           -1.36891385251179        1.23312072399183       -2.80198971700470
H           -0.87881785860233        1.54059456301615        0.80262678757507
H            0.39587729752343        1.96530660716067       -1.12291522140340
H            2.08420185555506       -0.54230372351345        0.57072635860066
H            2.12499110711249        1.11401729819100       -0.05076634411049
H            2.69296134388580        0.23979075060015       -2.32077615415868
H            2.73362263242433       -1.40657657515951       -1.66974729487248
H            4.42045415799655        1.87351558817087       -1.70175176704189
H            6.68644633519909        2.26148939240017       -0.89597607417961
H            8.38992769809880        2.45466559481194        0.74163381963304
H            9.01141211362558        1.82924611554020       -0.81342785809142
H            9.85568442795106        1.44432269603352        0.70641348287912
H            7.26659629427176       -3.68546029599689        1.59826919731304
H            5.59301576484983       -3.08917208477898        1.70539436783918
H            6.24844553425412       -3.65030019821534        0.13839454986579
H            4.49963920889216       -2.09075784931126       -0.13481440582818
H           -0.20752440024496       -1.71663328345584       -1.75671511636744
H           -1.00437247614304       -1.35484842888699       -0.21140787977968
H            0.62263399602548       -2.05586756529598       -0.23109048351239
H           -4.90387067909776        2.59301164301013       -0.22166439593489
H           -4.10299480876788        2.54581986492806        2.71082810248691
H           -5.18160288208644        1.39286964040652        1.91334699666198
H           -5.65944434901036        3.08078170472399        2.07649954441272
H           -3.03837744335250        4.44505063560349        1.31263825652470
H           -3.39212816065466        4.54306763991807       -0.42055831533095
H           -4.66130320977627        4.83609487316457        0.75697351910887
H           -0.99993012539164        2.73019086205146        2.81004616702054

          :  Hamiltonian                  GFN2-xTB          :
         :: total energy            -101.986664489350 Eh    ::
         :: gradient norm              0.003282399684 Eh/a0 ::
         :: HOMO-LUMO gap              1.172747500938 eV    ::
         :: SCC energy              -100.724914622643 Eh    ::
         :: -> dispersion             -0.074950794807 Eh    ::
         :: repulsion energy           1.550378465457 Eh    ::

    * Orbital Energies and Occupations

         #    Occupation            Energy/Eh            Energy/eV
      -------------------------------------------------------------
         1        2.0000           -0.8513605             -23.1667
       ...           ...                  ...                  ...
        78        1.9990           -0.5278630             -14.3639
        79        1.9989           -0.5264893             -14.3265
        80        1.9988           -0.5248510             -14.2819
        81        1.9986           -0.5230314             -14.2324
        82        1.9976           -0.5142647             -13.9939
        83        1.9969           -0.5103278             -13.8867
        84        1.9967           -0.5093591             -13.8604
        85        1.9962           -0.5072393             -13.8027
        86        1.9831           -0.4833324             -13.1521
        87        1.9821           -0.4823726             -13.1260
        88        1.9551           -0.4676298             -12.7249
        89        1.8696           -0.4500264             -12.2458
        90        1.6202           -0.4308392             -11.7237 (HOMO)
        91        0.4381           -0.3877415             -10.5510 (LUMO)
        92        0.1444           -0.3674370              -9.9985
        93        0.0206           -0.3355752              -9.1315
        94        0.0036           -0.3076251              -8.3709
        95        0.0033           -0.3062406              -8.3332
        96        0.0028           -0.3037515              -8.2655
        97        0.0000           -0.2272173              -6.1829
        98        0.0000           -0.1812267              -4.9314
        99                         -0.1307641              -3.5583
       100                         -0.0788099              -2.1445
       101                         -0.0629282              -1.7124
       ...                                ...                  ...
       171                          1.4070308              38.2873
      -------------------------------------------------------------
                  HL-Gap            0.0430977 Eh            1.1727 eV

     #   Z          covCN         q      C6AA      α(0)
     1   7 N        1.773    -0.274    27.938     7.827
     2   6 C        2.826     0.098    25.825     8.327
     3   6 C        3.908     0.005    20.435     6.425
     4   6 C        2.960     0.010    27.793     8.647
     5   6 C        2.916    -0.095    30.379     9.038
     6   6 C        2.847     0.133    25.087     8.209
     7   8 O        1.706    -0.244    18.041     5.735
     8   6 C        3.644     0.028    20.445     6.499
     9   6 C        2.865     0.074    26.343     8.413
    10   8 O        1.711    -0.075    15.482     5.312
    11   6 C        2.744    -0.001    28.021     8.667
    12   6 C        3.806    -0.102    22.433     6.743
    13   6 C        2.905    -0.073    29.814     8.953
    14   6 C        3.812    -0.065    21.736     6.636
    15   6 C        3.802    -0.068    21.798     6.647
    16   6 C        2.843     0.002    27.985     8.670
    17   7 N        2.729     0.004    21.202     6.839
    18   6 C        3.756    -0.015    20.900     6.518
    19   6 C        3.808    -0.070    21.835     6.652
    20   6 C        2.970    -0.002    28.069     8.690
    21   6 C        2.922    -0.050    29.239     8.867
    22   6 C        2.914    -0.068    29.701     8.937
    23   6 C        2.865     0.132    25.108     8.214
    24   8 O        1.706    -0.226    17.747     5.688
    25   6 C        3.645     0.026    20.468     6.502
    26   6 C        2.863     0.132    25.118     8.215
    27   8 O        1.706    -0.229    17.790     5.695
    28   6 C        3.645     0.029    20.428     6.496
    29   6 C        2.920    -0.080    30.008     8.983
    30   6 C        3.699    -0.068    21.966     6.703
    31   6 C        3.853    -0.007    20.674     6.467
    32   6 C        3.756    -0.120    22.854     6.816
    33   6 C        3.755    -0.118    22.810     6.810
    34   1 H        0.926     0.052     2.292     2.368
    35   1 H        0.924     0.054     2.273     2.358
    36   1 H        0.925     0.080     1.981     2.201
    37   1 H        0.924     0.048     2.339     2.392
    38   1 H        0.926     0.054     2.274     2.358
    39   1 H        0.926     0.084     1.938     2.177
    40   1 H        0.930     0.116     1.644     2.005
    41   1 H        0.920     0.070     2.083     2.257
    42   1 H        0.926     0.037     2.487     2.466
    43   1 H        0.925     0.058     2.221     2.331
    44   1 H        0.924     0.052     2.290     2.366
    45   1 H        0.925     0.063     2.159     2.298
    46   1 H        0.923     0.076     2.020     2.223
    47   1 H        0.922     0.005     2.968     2.694
    48   1 H        0.926     0.066     2.128     2.281
    49   1 H        0.924     0.064     2.149     2.292
    50   1 H        0.924     0.066     2.130     2.282
    51   1 H        0.924     0.054     2.270     2.356
    52   1 H        0.924     0.054     2.275     2.359
    53   1 H        0.926     0.043     2.405     2.425
    54   1 H        0.926     0.057     2.239     2.340
    55   1 H        0.924     0.052     2.291     2.367
    56   1 H        0.924     0.054     2.270     2.356
    57   1 H        0.925     0.080     1.974     2.197
    58   1 H        0.925     0.080     1.980     2.200
    59   1 H        0.924     0.046     2.367     2.406
    60   1 H        0.924     0.051     2.312     2.378
    61   1 H        0.926     0.045     2.386     2.416
    62   1 H        0.924     0.074     2.045     2.237
    63   1 H        0.924     0.075     2.028     2.227
    64   1 H        0.925     0.077     2.009     2.216
    65   1 H        0.924     0.036     2.504     2.475
    66   1 H        0.925     0.069     2.096     2.264
    67   1 H        0.925     0.033     2.550     2.497
    68   1 H        0.925     0.050     2.316     2.380
    69   1 H        0.925     0.059     2.209     2.324
    70   1 H        0.925     0.033     2.538     2.491
    71   1 H        0.925     0.053     2.288     2.365
    72   1 H        0.860     0.154     1.371     1.834

Wiberg/Mayer (AO) data.
largest (>0.10) Wiberg bond orders for each atom

     #   Z sym  total        # sym  WBO       # sym  WBO       # sym  WBO
 ---------------------------------------------------------------------------
     1   7 N    3.036 --     2 C    1.952    72 H    0.943
     2   6 C    3.923 --     1 N    1.952     3 C    0.995    47 H    0.900
     3   6 C    3.979 --     2 C    0.995     4 C    0.963    14 C    0.962
                            31 C    0.943
     4   6 C    3.965 --    13 C    1.668     5 C    1.203     3 C    0.963
     5   6 C    3.808 --     6 C    1.422     4 C    1.203    34 H    0.959
     6   6 C    3.897 --     5 C    1.422     9 C    1.236     7 O    1.090
     7   8 O    2.253 --     6 C    1.090     8 C    0.976
     8   6 C    3.933 --    36 H    0.977     7 O    0.976    35 H    0.975
                            37 H    0.975
     9   6 C    3.762 --     6 C    1.236    10 O    1.173    12 C    1.006
                            11 C    0.227
    10   8 O    2.560 --    11 C    1.273     9 C    1.173
    11   6 C    3.578 --    10 O    1.273    38 H    0.970    39 H    0.969
                             9 C    0.227
    12   6 C    3.974 --    13 C    1.023     9 C    1.006    40 H    0.952
                            41 H    0.911
    13   6 C    3.841 --     4 C    1.668    12 C    1.023    42 H    0.962
    14   6 C    3.974 --    15 C    0.981    44 H    0.972    43 H    0.969
                             3 C    0.962
    15   6 C    3.988 --    16 C    1.058    14 C    0.981    45 H    0.962
                            46 H    0.930
    16   6 C    3.562 --    17 N    1.378    15 C    1.058    48 H    0.958
    17   7 N    3.457 --    16 C    1.378    30 C    1.000    18 C    0.989
    18   6 C    3.957 --    17 N    0.989    50 H    0.968    19 C    0.967
                            49 H    0.964
    19   6 C    3.976 --    20 C    1.007    52 H    0.972    51 H    0.972
                            18 C    0.967
    20   6 C    3.950 --    21 C    1.414    29 C    1.378    19 C    1.007
    21   6 C    3.955 --    22 C    1.414    20 C    1.414    53 H    0.968
    22   6 C    3.963 --    21 C    1.414    23 C    1.387    54 H    0.963
    23   6 C    3.901 --    22 C    1.387    26 C    1.224    24 O    1.105
    24   8 O    2.255 --    23 C    1.105    25 C    0.977
    25   6 C    3.930 --    57 H    0.977    24 O    0.977    56 H    0.973
                            55 H    0.973
    26   6 C    3.904 --    29 C    1.399    23 C    1.224    27 O    1.098
    27   8 O    2.254 --    26 C    1.098    28 C    0.980
    28   6 C    3.934 --    27 O    0.980    58 H    0.977    59 H    0.974
                            60 H    0.974
    29   6 C    3.962 --    26 C    1.399    20 C    1.378    61 H    0.963
    30   6 C    3.960 --    17 N    1.000    64 H    0.978    62 H    0.967
                            63 H    0.963
    31   6 C    3.978 --    33 C    1.009    32 C    1.009    65 H    0.961
                             3 C    0.943
    32   6 C    3.983 --    31 C    1.009    67 H    0.983    68 H    0.982
                            66 H    0.975
    33   6 C    3.986 --    31 C    1.009    70 H    0.983    71 H    0.981
                            69 H    0.978
    34   1 H    0.996 --     5 C    0.959
    35   1 H    0.995 --     8 C    0.975
    36   1 H    0.993 --     8 C    0.977
    37   1 H    0.995 --     8 C    0.975
    38   1 H    0.997 --    11 C    0.970
    39   1 H    0.992 --    11 C    0.969
    40   1 H    0.979 --    12 C    0.952
    41   1 H    0.964 --    12 C    0.911
    42   1 H    0.998 --    13 C    0.962
    43   1 H    0.995 --    14 C    0.969
    44   1 H    0.996 --    14 C    0.972
    45   1 H    0.995 --    15 C    0.962
    46   1 H    0.969 --    15 C    0.930
    47   1 H    0.990 --     2 C    0.900
    48   1 H    0.995 --    16 C    0.958
    49   1 H    0.991 --    18 C    0.964
    50   1 H    0.994 --    18 C    0.968
    51   1 H    0.996 --    19 C    0.972
    52   1 H    0.996 --    19 C    0.972
    53   1 H    0.998 --    21 C    0.968
    54   1 H    0.995 --    22 C    0.963
    55   1 H    0.993 --    25 C    0.973
    56   1 H    0.993 --    25 C    0.973
    57   1 H    0.993 --    25 C    0.977
    58   1 H    0.993 --    28 C    0.977
    59   1 H    0.994 --    28 C    0.974
    60   1 H    0.994 --    28 C    0.974
    61   1 H    0.997 --    29 C    0.963
    62   1 H    0.985 --    30 C    0.967
    63   1 H    0.987 --    30 C    0.963
    64   1 H    0.994 --    30 C    0.978
    65   1 H    0.994 --    31 C    0.961
    66   1 H    0.992 --    32 C    0.975
    67   1 H    0.998 --    32 C    0.983
    68   1 H    0.995 --    32 C    0.982
    69   1 H    0.994 --    33 C    0.978
    70   1 H    0.998 --    33 C    0.983
    71   1 H    0.995 --    33 C    0.981
    72   1 H    0.972 --     1 N    0.943
 ---------------------------------------------------------------------------

molecular dipole:
                 x           y           z       tot (Debye)
 q only:       -0.343      -0.752      -0.630
   full:       -0.105      -0.816      -0.817       2.946

           -------------------------------------------------
          | TOTAL ENERGY             -101.986664489350 Eh   |
          | GRADIENT NORM               0.003282399684 Eh/α |
          | HOMO-LUMO GAP               1.172747500938 eV   |
           -------------------------------------------------

 * finished run on 2024/04/06 at 11:16:23.914
