   * xtb version 6.6.1 (8d0f1dd) compiled by 'conda@1efc2f54142f' on 2023-08-01
          program call               : xtb xtbopt.xyz --opt crude --input .xc2 --gfn2

   ID    Z sym.   atoms
    1    7 N      1, 17
    2    6 C      2-6, 8, 9, 11-16, 18-23, 25, 26, 28-33
    3    8 O      7, 10, 24, 27
    4    1 H      34-72
########################################################################
[WARNING] Please study the warnings concerning your input carefully
-1- readin_getIntValue: could not parse ''
########################################################################

          :  Hamiltonian                  GFN2-xTB          :
 * total energy  :   -99.1732650 Eh     change       -0.3851142E-11 Eh
 * total energy  :   -99.3350334 Eh     change       -0.1617684E+00 Eh
 * total energy  :   -99.3368644 Eh     change       -0.1830949E-02 Eh
 * total energy  :   -99.3379128 Eh     change       -0.1048384E-02 Eh
 * total energy  :   -99.3381153 Eh     change       -0.2025214E-03 Eh
   *** GEOMETRY OPTIMIZATION CONVERGED AFTER 5 ITERATIONS ***

 final structure:
================
72
 xtb: 6.6.1 (8d0f1dd)
N           -1.85596733172390        2.66127036759130        2.26232088619731
C           -1.80690196978035        2.01381608540760        1.19427625671406
C           -2.96621939290270        1.82189525011289        0.25504424695643
C           -3.47188177529489        0.38719648799059        0.35392197878355
C           -4.43503821059285       -0.05131545722087       -0.60323685077929
C           -4.97180154836725       -1.32003219091397       -0.55240604347867
O           -5.88529681450353       -1.81682523950494       -1.41755727812532
C           -6.45371724412972       -0.96073786634840       -2.38306423601868
C           -4.56945892649056       -2.22704373875186        0.46135226740676
O           -5.12055852924404       -3.42303736311457        0.45144400315931
C           -4.92852047462832       -4.36866574546635        1.31985087245812
C           -3.61110895772232       -1.82153273732188        1.53695837618414
C           -3.06326978496223       -0.44529823015314        1.33799695621558
C           -2.42396758015007        2.10967282649427       -1.16774032264167
C           -1.49179017406175        1.01992646008293       -1.72802969259756
C           -0.14409089445602        1.03121536680227       -1.11491944925503
N            0.53667561911005       -0.04359536402159       -0.72038789778253
C            1.91667938700069        0.07372139208947       -0.31368597284841
C            2.89118245672043       -0.35700223535293       -1.42677909933581
C            4.30597533756897       -0.13599148075776       -0.96907568738166
C            4.93150931332181        1.08229600575386       -1.17355197012190
C            6.22269500684501        1.30283757271964       -0.71856557108749
C            6.91286057203548        0.30740506506279       -0.04308704509566
O            8.16570737854230        0.40968382076560        0.44200390984964
C            8.88020135612207        1.60839667873147        0.24859785296766
C            6.27806829283671       -0.94567396450232        0.17438792907245
O            7.02066776692211       -1.85736762229911        0.83670617677651
C            6.48742215178086       -3.13789084438326        1.07253071271020
C            4.98713793614460       -1.14274469224808       -0.28834099801595
C           -0.04833532437802       -1.36171075708731       -0.73455278355267
C           -4.16644809047234        2.76780466537339        0.56439034928363
C           -4.82291182858791        2.42728701115259        1.90060446717147
C           -3.78314243803176        4.24506414502762        0.54385811961372
H           -4.75894637425587        0.63146788176260       -1.36792385836556
H           -6.92951642712782       -0.09374985571595       -1.91592843027660
H           -7.20976329634632       -1.55647578050554       -2.89070848326515
H           -5.70976415121017       -0.62505175360786       -3.11199736263932
H           -4.29369152350600       -4.26387973035615        2.18138426564943
H           -5.46593216717631       -5.27784121324614        1.13178651014168
H           -2.79303488566410       -2.54581084566531        1.62556565288600
H           -4.13649978149106       -1.84999456706435        2.51031543901315
H           -2.35623650651025       -0.11910882920601        2.08413016386283
H           -3.26526575024087        2.22075560837762       -1.85071304589468
H           -1.88796783013841        3.05938081262816       -1.15317317738458
H           -1.97092671088813        0.04661898706586       -1.63696885266024
H           -1.36794589282469        1.23079376173290       -2.79850436087672
H           -0.88636402989240        1.53727682340471        0.80588665637433
H            0.39519339904839        1.96658968431996       -1.11671706853846
H            2.08350644482820       -0.54527025265290        0.57223931830739
H            2.12619105196255        1.11176371956695       -0.04723776312259
H            2.69002467679128        0.23767961152204       -2.31935275444947
H            2.73127866227462       -1.40855453099073       -1.66804909991820
H            4.41897657611704        1.87125119995810       -1.70286514604556
H            6.68561310309284        2.25894648278484       -0.89953258651047
H            8.38693668205254        2.45300659783910        0.73950782863647
H            9.01174246848693        1.82935385222936       -0.81489225409561
H            9.85399541504024        1.44453930894173        0.70603847657111
H            7.26772026123977       -3.68752654958435        1.59535562803043
H            5.59422190622599       -3.09121750507309        1.70419152371640
H            6.24814314827891       -3.65223317901450        0.13645618047922
H            4.49928221879062       -2.09271983160021       -0.13501108931364
H           -0.21031852616915       -1.71272691394021       -1.75632659634649
H           -1.00701852309004       -1.35466662896656       -0.21001824089572
H            0.62014211927348       -2.05605870008878       -0.23176053664074
H           -4.90707209625228        2.60133186496970       -0.22591017829912
H           -4.11007890280599        2.55744413097351        2.70795813688621
H           -5.18789284872537        1.40347675167506        1.91114880151284
H           -5.66593968467480        3.09161366188561        2.07041036371173
H           -3.04218242759545        4.45306685565924        1.30931824991432
H           -3.39552196352012        4.55134481510036       -0.42405735381067
H           -4.66504677025882        4.84458199825655        0.75338312843489
H           -0.99988075060913        2.74171810741687        2.80257229441848

          :  Hamiltonian                  GFN2-xTB          :
         :: total energy             -99.338115285312 Eh    ::
         :: gradient norm              0.007358909760 Eh/a0 ::
         :: HOMO-LUMO gap              1.179784410006 eV    ::
         :: SCC energy              -100.700664034094 Eh    ::
         :: -> dispersion             -0.074893628697 Eh    ::
         :: repulsion energy           1.361275848942 Eh    ::

    * Orbital Energies and Occupations

         #    Occupation            Energy/Eh            Energy/eV
      -------------------------------------------------------------
         1        2.0000           -0.8509236             -23.1548
       ...           ...                  ...                  ...
        78        1.9990           -0.5277492             -14.3608
        79        1.9989           -0.5264692             -14.3260
        80        1.9987           -0.5245625             -14.2741
        81        1.9986           -0.5231135             -14.2346
        82        1.9976           -0.5143422             -13.9960
        83        1.9969           -0.5102732             -13.8852
        84        1.9967           -0.5093679             -13.8606
        85        1.9962           -0.5071632             -13.8006
        86        1.9824           -0.4828431             -13.1388
        87        1.9820           -0.4824633             -13.1285
        88        1.9549           -0.4677030             -12.7268
        89        1.8691           -0.4501194             -12.2484
        90        1.6247           -0.4312304             -11.7344 (HOMO)
        91        0.4376           -0.3878741             -10.5546 (LUMO)
        92        0.1427           -0.3673928              -9.9973
        93        0.0203           -0.3354723              -9.1287
        94        0.0035           -0.3073206              -8.3626
        95        0.0032           -0.3063403              -8.3359
        96        0.0028           -0.3038517              -8.2682
        97        0.0000           -0.2282936              -6.2122
        98        0.0000           -0.1813364              -4.9344
        99                         -0.1309542              -3.5634
       100                         -0.0762848              -2.0758
       101                         -0.0627038              -1.7063
       ...                                ...                  ...
       171                          0.5830714              15.8662
      -------------------------------------------------------------
                  HL-Gap            0.0433563 Eh            1.1798 eV

     #   Z          covCN         q      C6AA      α(0)
     1   7 N        1.773    -0.274    27.934     7.826
     2   6 C        2.826     0.098    25.820     8.326
     3   6 C        3.908     0.005    20.433     6.425
     4   6 C        2.961     0.010    27.783     8.646
     5   6 C        2.915    -0.094    30.363     9.036
     6   6 C        2.847     0.133    25.079     8.207
     7   8 O        1.706    -0.244    18.039     5.734
     8   6 C        3.644     0.028    20.447     6.500
     9   6 C        2.867     0.079    26.239     8.397
    10   8 O        1.711    -0.073    15.453     5.308
    11   6 C        2.744    -0.000    28.012     8.666
    12   6 C        3.806    -0.067    21.783     6.644
    13   6 C        2.906    -0.068    29.688     8.934
    14   6 C        3.812    -0.065    21.734     6.636
    15   6 C        3.802    -0.068    21.797     6.647
    16   6 C        2.843     0.002    27.983     8.669
    17   7 N        2.728     0.003    21.203     6.839
    18   6 C        3.755    -0.015    20.900     6.518
    19   6 C        3.807    -0.070    21.835     6.652
    20   6 C        2.970    -0.002    28.067     8.690
    21   6 C        2.922    -0.050    29.239     8.867
    22   6 C        2.914    -0.068    29.700     8.937
    23   6 C        2.865     0.132    25.108     8.213
    24   8 O        1.706    -0.226    17.745     5.688
    25   6 C        3.645     0.026    20.468     6.502
    26   6 C        2.863     0.132    25.117     8.215
    27   8 O        1.706    -0.228    17.789     5.694
    28   6 C        3.645     0.029    20.429     6.496
    29   6 C        2.920    -0.080    30.007     8.983
    30   6 C        3.699    -0.067    21.961     6.702
    31   6 C        3.853    -0.007    20.673     6.467
    32   6 C        3.756    -0.120    22.847     6.815
    33   6 C        3.755    -0.118    22.811     6.810
    34   1 H        0.926     0.052     2.292     2.367
    35   1 H        0.924     0.054     2.271     2.357
    36   1 H        0.925     0.080     1.979     2.200
    37   1 H        0.924     0.048     2.339     2.392
    38   1 H        0.926     0.054     2.264     2.353
    39   1 H        0.926     0.085     1.930     2.173
    40   1 H        0.924     0.059     2.214     2.327
    41   1 H        0.922     0.073     2.052     2.240
    42   1 H        0.926     0.039     2.464     2.455
    43   1 H        0.925     0.058     2.222     2.331
    44   1 H        0.924     0.053     2.287     2.365
    45   1 H        0.925     0.063     2.160     2.298
    46   1 H        0.923     0.076     2.019     2.222
    47   1 H        0.922     0.006     2.964     2.693
    48   1 H        0.926     0.066     2.126     2.280
    49   1 H        0.924     0.064     2.148     2.292
    50   1 H        0.924     0.066     2.129     2.282
    51   1 H        0.924     0.054     2.269     2.356
    52   1 H        0.924     0.054     2.275     2.359
    53   1 H        0.926     0.043     2.404     2.425
    54   1 H        0.926     0.057     2.239     2.340
    55   1 H        0.924     0.052     2.290     2.367
    56   1 H        0.924     0.054     2.269     2.356
    57   1 H        0.925     0.081     1.974     2.197
    58   1 H        0.925     0.080     1.979     2.200
    59   1 H        0.924     0.046     2.366     2.406
    60   1 H        0.924     0.051     2.312     2.378
    61   1 H        0.926     0.045     2.386     2.416
    62   1 H        0.924     0.074     2.045     2.236
    63   1 H        0.924     0.075     2.030     2.228
    64   1 H        0.925     0.077     2.009     2.216
    65   1 H        0.924     0.036     2.505     2.475
    66   1 H        0.925     0.069     2.101     2.267
    67   1 H        0.925     0.033     2.549     2.497
    68   1 H        0.925     0.050     2.316     2.380
    69   1 H        0.925     0.060     2.204     2.322
    70   1 H        0.925     0.034     2.537     2.491
    71   1 H        0.925     0.053     2.287     2.365
    72   1 H        0.860     0.155     1.371     1.834

Wiberg/Mayer (AO) data.
largest (>0.10) Wiberg bond orders for each atom

     #   Z sym  total        # sym  WBO       # sym  WBO       # sym  WBO
 ---------------------------------------------------------------------------
     1   7 N    3.036 --     2 C    1.952    72 H    0.943
     2   6 C    3.923 --     1 N    1.952     3 C    0.995    47 H    0.900
     3   6 C    3.979 --     2 C    0.995     4 C    0.965    14 C    0.962
                            31 C    0.942
     4   6 C    3.964 --    13 C    1.661     5 C    1.205     3 C    0.965
     5   6 C    3.811 --     6 C    1.424     4 C    1.205    34 H    0.959
     6   6 C    3.896 --     5 C    1.424     9 C    1.231     7 O    1.091
     7   8 O    2.253 --     6 C    1.091     8 C    0.976
     8   6 C    3.933 --    36 H    0.977     7 O    0.976    35 H    0.975
                            37 H    0.975
     9   6 C    3.769 --     6 C    1.231    10 O    1.174    12 C    1.019
                            11 C    0.227
    10   8 O    2.562 --    11 C    1.275     9 C    1.174
    11   6 C    3.584 --    10 O    1.275    38 H    0.969    39 H    0.969
                             9 C    0.227
    12   6 C    3.987 --    13 C    1.034     9 C    1.019    40 H    0.937
                            41 H    0.921
    13   6 C    3.842 --     4 C    1.661    12 C    1.034    42 H    0.962
    14   6 C    3.973 --    15 C    0.982    44 H    0.972    43 H    0.969
                             3 C    0.962
    15   6 C    3.988 --    16 C    1.058    14 C    0.982    45 H    0.962
                            46 H    0.930
    16   6 C    3.563 --    17 N    1.378    15 C    1.058    48 H    0.958
    17   7 N    3.457 --    16 C    1.378    30 C    1.000    18 C    0.989
    18   6 C    3.957 --    17 N    0.989    50 H    0.968    19 C    0.967
                            49 H    0.964
    19   6 C    3.976 --    20 C    1.007    52 H    0.972    51 H    0.972
                            18 C    0.967
    20   6 C    3.949 --    21 C    1.414    29 C    1.378    19 C    1.007
    21   6 C    3.955 --    22 C    1.414    20 C    1.414    53 H    0.968
    22   6 C    3.963 --    21 C    1.414    23 C    1.387    54 H    0.963
    23   6 C    3.901 --    22 C    1.387    26 C    1.224    24 O    1.105
    24   8 O    2.255 --    23 C    1.105    25 C    0.977
    25   6 C    3.930 --    57 H    0.977    24 O    0.977    55 H    0.973
                            56 H    0.973
    26   6 C    3.904 --    29 C    1.398    23 C    1.224    27 O    1.098
    27   8 O    2.254 --    26 C    1.098    28 C    0.980
    28   6 C    3.934 --    27 O    0.980    58 H    0.977    59 H    0.974
                            60 H    0.974
    29   6 C    3.962 --    26 C    1.398    20 C    1.378    61 H    0.963
    30   6 C    3.960 --    17 N    1.000    64 H    0.978    62 H    0.967
                            63 H    0.964
    31   6 C    3.977 --    33 C    1.009    32 C    1.009    65 H    0.961
                             3 C    0.942
    32   6 C    3.983 --    31 C    1.009    67 H    0.983    68 H    0.982
                            66 H    0.975
    33   6 C    3.986 --    31 C    1.009    70 H    0.983    71 H    0.981
                            69 H    0.978
    34   1 H    0.996 --     5 C    0.959
    35   1 H    0.995 --     8 C    0.975
    36   1 H    0.993 --     8 C    0.977
    37   1 H    0.995 --     8 C    0.975
    38   1 H    0.997 --    11 C    0.969
    39   1 H    0.992 --    11 C    0.969
    40   1 H    0.976 --    12 C    0.937
    41   1 H    0.967 --    12 C    0.921
    42   1 H    0.998 --    13 C    0.962
    43   1 H    0.995 --    14 C    0.969
    44   1 H    0.996 --    14 C    0.972
    45   1 H    0.995 --    15 C    0.962
    46   1 H    0.969 --    15 C    0.930
    47   1 H    0.990 --     2 C    0.900
    48   1 H    0.995 --    16 C    0.958
    49   1 H    0.991 --    18 C    0.964
    50   1 H    0.994 --    18 C    0.968
    51   1 H    0.996 --    19 C    0.972
    52   1 H    0.996 --    19 C    0.972
    53   1 H    0.998 --    21 C    0.968
    54   1 H    0.995 --    22 C    0.963
    55   1 H    0.993 --    25 C    0.973
    56   1 H    0.993 --    25 C    0.973
    57   1 H    0.993 --    25 C    0.977
    58   1 H    0.993 --    28 C    0.977
    59   1 H    0.994 --    28 C    0.974
    60   1 H    0.994 --    28 C    0.974
    61   1 H    0.997 --    29 C    0.963
    62   1 H    0.985 --    30 C    0.967
    63   1 H    0.987 --    30 C    0.964
    64   1 H    0.994 --    30 C    0.978
    65   1 H    0.994 --    31 C    0.961
    66   1 H    0.992 --    32 C    0.975
    67   1 H    0.998 --    32 C    0.983
    68   1 H    0.995 --    32 C    0.982
    69   1 H    0.994 --    33 C    0.978
    70   1 H    0.998 --    33 C    0.983
    71   1 H    0.995 --    33 C    0.981
    72   1 H    0.972 --     1 N    0.943
 ---------------------------------------------------------------------------

molecular dipole:
                 x           y           z       tot (Debye)
 q only:       -0.365      -0.711      -0.663
   full:       -0.100      -0.812      -0.836       2.973

           -------------------------------------------------
          | TOTAL ENERGY              -99.338115285312 Eh   |
          | GRADIENT NORM               0.007358909760 Eh/α |
          | HOMO-LUMO GAP               1.179784410006 eV   |
           -------------------------------------------------

 * finished run on 2024/04/06 at 11:16:25.042
