   * xtb version 6.6.1 (8d0f1dd) compiled by 'conda@1efc2f54142f' on 2023-08-01
          program call               : xtb struc.xyz --opt loose --input .xc1 --gfn2

   ID    Z sym.   atoms
    1    7 N      1, 17
    2    6 C      2-6, 8, 9, 11-16, 18-23, 25, 26, 28-33
    3    8 O      7, 10, 24, 27
    4    1 H      34-72
constraining bond 55 56 to    3.2800000 Å, actual value:    1.7879354 Å

          :  Hamiltonian                  GFN2-xTB          :
 * total energy  :   -99.0066256 Eh     change       -0.4035485E-08 Eh
 * total energy  :   -99.1655050 Eh     change       -0.1588794E+00 Eh
 * total energy  :   -99.2381019 Eh     change       -0.7259694E-01 Eh
 * total energy  :   -99.2553133 Eh     change       -0.1721135E-01 Eh
 * total energy  :   -99.2578507 Eh     change       -0.2537403E-02 Eh
 * total energy  :   -99.2584895 Eh     change       -0.6388117E-03 Eh
 * total energy  :   -99.2590164 Eh     change       -0.5269249E-03 Eh
 * total energy  :   -99.2591918 Eh     change       -0.1753476E-03 Eh
 * total energy  :   -99.2593115 Eh     change       -0.1197541E-03 Eh
 * total energy  :   -99.2594176 Eh     change       -0.1061204E-03 Eh
 * total energy  :   -99.2595324 Eh     change       -0.1147565E-03 Eh
 * total energy  :   -99.2596413 Eh     change       -0.1089277E-03 Eh
 * total energy  :   -99.2597504 Eh     change       -0.1090358E-03 Eh
 * total energy  :   -99.2598536 Eh     change       -0.1032154E-03 Eh
 * total energy  :   -99.2599346 Eh     change       -0.8098255E-04 Eh
 * total energy  :   -99.2599831 Eh     change       -0.4855201E-04 Eh
   *** GEOMETRY OPTIMIZATION CONVERGED AFTER 16 ITERATIONS ***

 final structure:
================
72
 xtb: 6.6.1 (8d0f1dd)
N           -1.86965960844761        2.77166317636406        2.21690409641890
C           -1.82544365739338        2.11107664586673        1.15820919216408
C           -2.98461381171167        1.90837580687528        0.22152245063930
C           -3.47126904403359        0.46858425558747        0.30607480705391
C           -4.43421776398557        0.00518790379232       -0.59340115844651
C           -4.90852210725582       -1.29509852147860       -0.53947133511881
O           -5.84184912331557       -1.82199509996451       -1.35842157672355
C           -6.48150597271313       -0.99792888646195       -2.30444499555122
C           -4.39771879407271       -2.18642795267899        0.44292087497718
O           -4.90649232961806       -3.43441549047757        0.41568701112965
C           -4.51451944707807       -4.35403123341952        1.40793044795504
C           -3.44602651535476       -1.71904067443282        1.33443017712487
C           -2.99247773446521       -0.40738877689743        1.26740348232982
C           -2.44336525084625        2.18529195181356       -1.20504411320731
C           -1.48762681938421        1.10421997360036       -1.74804637694095
C           -0.15583150922986        1.10063718363152       -1.10066639077195
N            0.49509668828891        0.02407512378030       -0.67547164216185
C            1.87131423423950        0.12174330441684       -0.24851904990958
C            2.84140200606886       -0.33192441936777       -1.35603326889982
C            4.26167729114722       -0.12514763520117       -0.91147832430572
C            4.89785756965834        1.08645573906395       -1.13109776413276
C            6.19855218671578        1.28694700907201       -0.70056437956620
C            6.88328070526965        0.27822106000894       -0.03893672208086
O            8.15191825155684        0.38760237297556        0.40717085401240
C            8.84672745352077        1.56516121566069        0.18638838673362
C            6.24150461732531       -0.96542020311731        0.19776566179909
O            6.98338785487217       -1.88666094335964        0.84549168268377
C            6.43588964309381       -3.16028028014472        1.09205580193481
C            4.93782713190920       -1.14153643972140       -0.24101476389657
C           -0.10317398551164       -1.28926080819264       -0.68412315426091
C           -4.18236514755694        2.85337162443794        0.53933647629773
C           -4.79941670406555        2.52453024597929        1.89719431755532
C           -3.80946819694240        4.33250231037894        0.48824117278133
H           -4.83257254175719        0.67561242690155       -1.33680014319434
H           -6.99184977840130       -0.15723424102114       -1.82503072001572
H           -7.21758268503119       -1.63357288293328       -2.79304759625590
H           -5.77734581439961       -0.62191165344705       -3.05372326544157
H           -4.75190866791246       -3.98658709787653        2.41063527555592
H           -5.08615179838208       -5.25856459652560        1.21030990857778
H           -3.44529277165624       -4.58091225278335        1.34518314773774
H           -3.05395475242207       -2.36662435652352        2.10166440153877
H           -2.27546112246488       -0.07016826231045        1.99988464119488
H           -3.28751687889204        2.25605709782760       -1.89027439323298
H           -1.93209930163223        3.14837932714338       -1.21033674751459
H           -1.96708430654456        0.12878940341636       -1.68692012276419
H           -1.33214953376310        1.33460267854285       -2.81011229339589
H           -0.90235268324196        1.63633371838869        0.77156329954849
H            0.39983397894115        2.02741001082476       -1.10393505719819
H            2.01680751528249       -0.49864648528173        0.63981174448906
H            2.09681590493766        1.15635156324077        0.01854876496460
H            2.64455288696628        0.25522415481623       -2.25451826544733
H            2.66867963799414       -1.38411860564028       -1.58443577099856
H            4.38934650370854        1.88242924005112       -1.65328818953587
H            6.69393866010584        2.22733792035852       -0.87870197865748
H            8.25572350020664        2.47583848712111        1.26537538363532
H            9.15959945000252        1.47748552182532       -1.26479615520869
H            9.83766581069138        1.42199991862011        0.60740447097759
H            7.21900869414529       -3.72329093180036        1.59603309765705
H            5.55834321097878       -3.10007465235255        1.74374193556559
H            6.16755513444044       -3.66810038996712        0.16056297585007
H            4.43584921872156       -2.08259060176673       -0.07840537760655
H           -0.25478424952383       -1.64831743503928       -1.70413855981656
H           -1.06748589881779       -1.27239583934958       -0.16985037636572
H            0.55266779046846       -1.98456856535733       -0.16649946706615
H           -4.94028139329465        2.66942645041665       -0.23019898492811
H           -4.07603382557612        2.70480942379051        2.68571035132757
H           -5.11998553661958        1.48669964672411        1.94316707046474
H           -5.66443460188597        3.15927296742028        2.06927352628965
H           -3.02900337754269        4.55157352752541        1.21048874987999
H           -3.47862352997381        4.63496986106525       -0.50186598142403
H           -4.68155111947898        4.92853467464454        0.74370912791706
H           -1.01523824206143        2.86359081342075        2.75708453788040

          :  Hamiltonian                  GFN2-xTB          :
         :: total energy             -99.259983108600 Eh    ::
         :: gradient norm              0.003189220117 Eh/a0 ::
         :: HOMO-LUMO gap              1.695010711869 eV    ::
         :: SCC energy              -100.639756206848 Eh    ::
         :: -> dispersion             -0.076102179522 Eh    ::
         :: repulsion energy           1.347960764771 Eh    ::

    * Orbital Energies and Occupations

         #    Occupation            Energy/Eh            Energy/eV
      -------------------------------------------------------------
         1        2.0000           -0.8090355             -22.0150
       ...           ...                  ...                  ...
        78        1.9982           -0.5283488             -14.3771
        79        1.9978           -0.5251764             -14.2908
        80        1.9975           -0.5231628             -14.2360
        81        1.9973           -0.5214786             -14.1902
        82        1.9960           -0.5156627             -14.0319
        83        1.9953           -0.5130614             -13.9611
        84        1.9943           -0.5099088             -13.8753
        85        1.9876           -0.4975531             -13.5391
        86        1.9811           -0.4907926             -13.3551
        87        1.9782           -0.4885458             -13.2940
        88        1.9391           -0.4719435             -12.8422
        89        1.8726           -0.4597075             -12.5093
        90        1.8504           -0.4569819             -12.4351 (HOMO)
        91        0.3897           -0.3946914             -10.7401 (LUMO)
        92        0.0158           -0.3406588              -9.2698
        93        0.0064           -0.3263076              -8.8793
        94        0.0035           -0.3168817              -8.6228
        95        0.0031           -0.3148900              -8.5686
        96        0.0029           -0.3138813              -8.5411
        97        0.0025           -0.3111646              -8.4672
        98        0.0000           -0.1973014              -5.3688
        99        0.0000           -0.1911878              -5.2025
       100        0.0000           -0.1726905              -4.6991
       101                         -0.1371466              -3.7319
       ...                                ...                  ...
       171                          0.5720666              15.5667
      -------------------------------------------------------------
                  HL-Gap            0.0622905 Eh            1.6950 eV

     #   Z          covCN         q      C6AA      α(0)
     1   7 N        1.773    -0.267    27.753     7.801
     2   6 C        2.826     0.100    25.767     8.318
     3   6 C        3.907     0.007    20.411     6.422
     4   6 C        2.974     0.003    27.953     8.672
     5   6 C        2.920    -0.079    29.982     8.979
     6   6 C        2.861     0.130    25.151     8.220
     7   8 O        1.706    -0.229    17.803     5.697
     8   6 C        3.644     0.027    20.454     6.501
     9   6 C        2.864     0.129    25.179     8.225
    10   8 O        1.706    -0.228    17.786     5.694
    11   6 C        3.646     0.027    20.455     6.500
    12   6 C        2.914    -0.075    29.871     8.962
    13   6 C        2.921    -0.054    29.338     8.882
    14   6 C        3.812    -0.065    21.740     6.637
    15   6 C        3.802    -0.069    21.817     6.650
    16   6 C        2.843     0.008    27.832     8.646
    17   7 N        2.729     0.010    21.084     6.820
    18   6 C        3.756    -0.016    20.920     6.521
    19   6 C        3.808    -0.071    21.848     6.654
    20   6 C        2.970     0.001    28.008     8.681
    21   6 C        2.922    -0.048    29.202     8.862
    22   6 C        2.914    -0.065    29.609     8.923
    23   6 C        2.872     0.131    25.136     8.219
    24   8 O        1.707    -0.214    17.550     5.656
    25   6 C        2.313     0.054    28.187     8.623
    26   6 C        2.862     0.133    25.079     8.209
    27   8 O        1.706    -0.227    17.760     5.690
    28   6 C        3.645     0.027    20.452     6.500
    29   6 C        2.920    -0.080    29.990     8.980
    30   6 C        3.699    -0.071    22.028     6.712
    31   6 C        3.853    -0.007    20.672     6.467
    32   6 C        3.756    -0.120    22.853     6.816
    33   6 C        3.755    -0.118    22.814     6.811
    34   1 H        0.926     0.052     2.293     2.368
    35   1 H        0.924     0.054     2.270     2.356
    36   1 H        0.925     0.081     1.964     2.192
    37   1 H        0.924     0.048     2.348     2.396
    38   1 H        0.924     0.055     2.258     2.350
    39   1 H        0.925     0.081     1.965     2.192
    40   1 H        0.924     0.048     2.348     2.396
    41   1 H        0.926     0.052     2.300     2.372
    42   1 H        0.926     0.038     2.478     2.462
    43   1 H        0.925     0.060     2.196     2.317
    44   1 H        0.924     0.054     2.273     2.358
    45   1 H        0.925     0.065     2.139     2.287
    46   1 H        0.924     0.080     1.981     2.201
    47   1 H        0.922     0.009     2.915     2.670
    48   1 H        0.926     0.070     2.088     2.260
    49   1 H        0.924     0.067     2.114     2.274
    50   1 H        0.924     0.067     2.117     2.275
    51   1 H        0.924     0.056     2.250     2.346
    52   1 H        0.924     0.056     2.245     2.343
    53   1 H        0.926     0.047     2.361     2.403
    54   1 H        0.926     0.067     2.124     2.279
    55   1 H        0.204     0.026     6.453     4.634
    56   1 H        0.304     0.037     5.737     4.341
    57   1 H        0.925     0.078     1.995     2.209
    58   1 H        0.925     0.082     1.960     2.189
    59   1 H        0.924     0.049     2.336     2.390
    60   1 H        0.924     0.053     2.288     2.366
    61   1 H        0.926     0.048     2.345     2.395
    62   1 H        0.924     0.076     2.020     2.223
    63   1 H        0.924     0.080     1.976     2.198
    64   1 H        0.925     0.079     1.986     2.204
    65   1 H        0.924     0.038     2.480     2.463
    66   1 H        0.925     0.071     2.072     2.251
    67   1 H        0.925     0.036     2.506     2.476
    68   1 H        0.925     0.051     2.303     2.373
    69   1 H        0.925     0.058     2.219     2.329
    70   1 H        0.925     0.034     2.525     2.485
    71   1 H        0.925     0.055     2.259     2.350
    72   1 H        0.860     0.157     1.353     1.822

Wiberg/Mayer (AO) data.
largest (>0.10) Wiberg bond orders for each atom

     #   Z sym  total        # sym  WBO       # sym  WBO       # sym  WBO
 ---------------------------------------------------------------------------
     1   7 N    3.045 --     2 C    1.956    72 H    0.941
     2   6 C    3.925 --     1 N    1.956     3 C    0.995    47 H    0.893
     3   6 C    3.976 --     2 C    0.995     4 C    0.968    14 C    0.959
                            31 C    0.941
     4   6 C    3.950 --    13 C    1.414     5 C    1.369     3 C    0.968
     5   6 C    3.962 --     6 C    1.401     4 C    1.369    34 H    0.958
     6   6 C    3.906 --     5 C    1.401     9 C    1.221     7 O    1.100
     7   8 O    2.255 --     6 C    1.100     8 C    0.978
     8   6 C    3.932 --     7 O    0.978    36 H    0.977    35 H    0.974
                            37 H    0.973
     9   6 C    3.902 --    12 C    1.393     6 C    1.221    10 O    1.102
    10   8 O    2.253 --     9 C    1.102    11 C    0.978
    11   6 C    3.931 --    10 O    0.978    39 H    0.977    40 H    0.974
                            38 H    0.973
    12   6 C    3.963 --    13 C    1.401     9 C    1.393    41 H    0.964
    13   6 C    3.955 --     4 C    1.414    12 C    1.401    42 H    0.962
    14   6 C    3.971 --    15 C    0.979    44 H    0.972    43 H    0.969
                             3 C    0.959
    15   6 C    3.987 --    16 C    1.059    14 C    0.979    45 H    0.963
                            46 H    0.929
    16   6 C    3.600 --    17 N    1.398    15 C    1.059    48 H    0.957
    17   7 N    3.479 --    16 C    1.398    30 C    0.998    18 C    0.988
    18   6 C    3.956 --    17 N    0.988    50 H    0.968    19 C    0.967
                            49 H    0.964
    19   6 C    3.976 --    20 C    1.008    52 H    0.972    51 H    0.972
                            18 C    0.967
    20   6 C    3.947 --    21 C    1.407    29 C    1.384    19 C    1.008
    21   6 C    3.952 --    22 C    1.421    20 C    1.407    53 H    0.968
    22   6 C    3.960 --    21 C    1.421    23 C    1.383    54 H    0.961
    23   6 C    3.893 --    22 C    1.383    26 C    1.231    24 O    1.087
    24   8 O    2.300 --    23 C    1.087    25 C    1.022
    25   6 C    3.847 --    24 O    1.022    57 H    0.974    56 H    0.914
                            55 H    0.904
    26   6 C    3.903 --    29 C    1.390    23 C    1.231    27 O    1.103
    27   8 O    2.254 --    26 C    1.103    28 C    0.978
    28   6 C    3.932 --    27 O    0.978    58 H    0.977    59 H    0.974
                            60 H    0.973
    29   6 C    3.960 --    26 C    1.390    20 C    1.384    61 H    0.963
    30   6 C    3.957 --    17 N    0.998    64 H    0.978    62 H    0.966
                            63 H    0.959
    31   6 C    3.972 --    33 C    1.009    32 C    1.008    65 H    0.960
                             3 C    0.941
    32   6 C    3.977 --    31 C    1.008    67 H    0.982    68 H    0.981
                            66 H    0.972
    33   6 C    3.984 --    31 C    1.009    70 H    0.983    71 H    0.980
                            69 H    0.977
    34   1 H    0.996 --     5 C    0.958
    35   1 H    0.993 --     8 C    0.974
    36   1 H    0.993 --     8 C    0.977
    37   1 H    0.994 --     8 C    0.973
    38   1 H    0.993 --    11 C    0.973
    39   1 H    0.993 --    11 C    0.977
    40   1 H    0.993 --    11 C    0.974
    41   1 H    0.996 --    12 C    0.964
    42   1 H    0.998 --    13 C    0.962
    43   1 H    0.995 --    14 C    0.969
    44   1 H    0.996 --    14 C    0.972
    45   1 H    0.995 --    15 C    0.963
    46   1 H    0.971 --    15 C    0.929
    47   1 H    0.987 --     2 C    0.893
    48   1 H    0.995 --    16 C    0.957
    49   1 H    0.991 --    18 C    0.964
    50   1 H    0.994 --    18 C    0.968
    51   1 H    0.996 --    19 C    0.972
    52   1 H    0.996 --    19 C    0.972
    53   1 H    0.997 --    21 C    0.968
    54   1 H    0.994 --    22 C    0.961
    55   1 H    0.977 --    25 C    0.904
    56   1 H    0.981 --    25 C    0.914
    57   1 H    0.991 --    25 C    0.974
    58   1 H    0.993 --    28 C    0.977
    59   1 H    0.993 --    28 C    0.974
    60   1 H    0.993 --    28 C    0.973
    61   1 H    0.997 --    29 C    0.963
    62   1 H    0.985 --    30 C    0.966
    63   1 H    0.987 --    30 C    0.959
    64   1 H    0.993 --    30 C    0.978
    65   1 H    0.992 --    31 C    0.960
    66   1 H    0.990 --    32 C    0.972
    67   1 H    0.997 --    32 C    0.982
    68   1 H    0.994 --    32 C    0.981
    69   1 H    0.994 --    33 C    0.977
    70   1 H    0.997 --    33 C    0.983
    71   1 H    0.994 --    33 C    0.980
    72   1 H    0.970 --     1 N    0.941
 ---------------------------------------------------------------------------

molecular dipole:
                 x           y           z       tot (Debye)
 q only:        0.536      -0.118      -0.834
   full:        0.895      -0.260      -0.958       3.398

           -------------------------------------------------
          | TOTAL ENERGY              -99.259983108600 Eh   |
          | GRADIENT NORM               0.003189220117 Eh/α |
          | HOMO-LUMO GAP               1.695010711869 eV   |
           -------------------------------------------------

 * finished run on 2024/04/06 at 11:15:10.221
