   * xtb version 6.6.1 (8d0f1dd) compiled by 'conda@1efc2f54142f' on 2023-08-01
          program call               : xtb xtbopt.xyz --opt crude --input .xc2 --gfn2

   ID    Z sym.   atoms
    1    7 N      1, 17
    2    6 C      2-6, 8, 9, 11-16, 18-23, 25, 26, 28-33
    3    8 O      7, 10, 24, 27
    4    1 H      34-72

          :  Hamiltonian                  GFN2-xTB          :
 * total energy  :   -99.2905474 Eh     change       -0.1136868E-11 Eh
 * total energy  :   -99.3630988 Eh     change       -0.7255140E-01 Eh
 * total energy  :   -99.3759540 Eh     change       -0.1285522E-01 Eh
 * total energy  :   -99.4029243 Eh     change       -0.2697028E-01 Eh
 * total energy  :   -99.4056780 Eh     change       -0.2753748E-02 Eh
 * total energy  :   -99.4011943 Eh     change        0.4483728E-02 Eh
 * total energy  :   -99.4065252 Eh     change       -0.5330939E-02 Eh
 * total energy  :   -99.4064588 Eh     change        0.6643224E-04 Eh
 * total energy  :   -99.4065903 Eh     change       -0.1314714E-03 Eh
   *** GEOMETRY OPTIMIZATION CONVERGED AFTER 9 ITERATIONS ***

 final structure:
================
72
 xtb: 6.6.1 (8d0f1dd)
N           -1.86782343971501        2.77844288466355        2.22177105665545
C           -1.82666490856857        2.11372190911122        1.16583060344285
C           -2.98475710706098        1.91038924118274        0.22901601523037
C           -3.46609901147836        0.46883958475249        0.31381967229297
C           -4.42431855317854        0.00439923697188       -0.58970315059464
C           -4.90065669039134       -1.29484533409090       -0.53572782543724
O           -5.83211020120659       -1.81988217240927       -1.35771535449505
C           -6.46892893321517       -0.99137603167719       -2.30171435253876
C           -4.39509844864405       -2.18561844545059        0.44980863045331
O           -4.90620397166719       -3.43253509812057        0.42091242008019
C           -4.51678881520364       -4.35553229666302        1.41093741144238
C           -3.44556666358041       -1.71827142579176        1.34383052341872
C           -2.99061557672225       -0.40682116664355        1.27741425101756
C           -2.43945843895481        2.19231720803125       -1.19501350556212
C           -1.49320209724564        1.10533270402739       -1.73885386491799
C           -0.16145677146966        1.10009459911370       -1.09194726472831
N            0.49490010114758        0.02015043440122       -0.68292064588738
C            1.87204228464145        0.11890697540202       -0.25992645672437
C            2.84313988321078       -0.33546029093038       -1.36622261480506
C            4.26269939440025       -0.13223994011271       -0.91587539428990
C            4.90281795284964        1.07774083765747       -1.12927441171127
C            6.20332806258063        1.27939788508216       -0.69405030612431
C            6.88925395393476        0.27301568047141       -0.02923600567614
O            8.15078393312603        0.35599901051922        0.43330698095751
C            8.88756292885130        1.53765234317382        0.21815424036980
C            6.23869358613664       -0.97128623887071        0.19933522315117
O            6.97783559448315       -1.89347509804352        0.84689699083385
C            6.43198917794927       -3.16771610671129        1.09134513508181
C            4.93741745885463       -1.14867063905379       -0.24403011690508
C           -0.10436481934052       -1.29249703277950       -0.69707767270954
C           -4.18733011205314        2.85146861263922        0.53749364720889
C           -4.81674997357362        2.52367014375771        1.88950987212916
C           -3.81855100787679        4.33148079345949        0.48401798149154
H           -4.81611977849886        0.67404046870378       -1.33713965073212
H           -6.97647742811671       -0.15042620146133       -1.81967902222798
H           -7.20679419200546       -1.62324330401735       -2.79229879799228
H           -5.76330742757465       -0.61513631191213       -3.04952370307297
H           -4.75653460630383       -3.99190184367871        2.41444091490813
H           -5.08817796899793       -5.25922638794565        1.20855289121153
H           -3.44750578417105       -4.58245597236576        1.34972777575227
H           -3.05742403557996       -2.36557004658580        2.11341546825035
H           -2.27513722048106       -0.07075344066799        2.01202311854292
H           -3.28109490388406        2.27850435381805       -1.88124943692351
H           -1.91746596639177        3.14980041115750       -1.19136006677805
H           -1.97778565967764        0.13279600790574       -1.67274588788652
H           -1.33690635740355        1.33013874103919       -2.80190260583895
H           -0.90642643113894        1.63258216493818        0.77869908975545
H            0.39278024831701        2.02758866842590       -1.09200200320780
H            2.01971791053933       -0.49835092173332        0.63027202876359
H            2.09673060430777        1.15475465660930        0.00290278467111
H            2.65014563432110        0.25372913711495       -2.26437108073174
H            2.66757064303758       -1.38660525472443       -1.59774858696722
H            4.39393059201277        1.87352204376888       -1.65178124849034
H            6.67850192791288        2.22798080075863       -0.88221581659490
H            8.40611661163804        2.38916612180620        0.71053298941318
H            8.99759565174682        1.75543290893541       -0.84774557470286
H            9.86224702085948        1.35878173190680        0.66933597469180
H            7.21564399821792       -3.72910638356335        1.59631075316727
H            5.55324662704514       -3.10993543225558        1.74178429161176
H            6.16608549182619       -3.67631893721330        0.15947472335125
H            4.43748664405761       -2.09102933609105       -0.08310963244732
H           -0.25928845310522       -1.64566582123671       -1.71876832024168
H           -1.06760204718802       -1.27759529331659       -0.18058508903021
H            0.55214763310257       -1.99109127833238       -0.18482089761360
H           -4.93799179039057        2.66314396846579       -0.23823097907636
H           -4.10412631491965        2.71054267892121        2.68626332617356
H           -5.13205404832840        1.48411206373694        1.93447747954768
H           -5.68797197202625        3.15349857926257        2.04856684107166
H           -3.04565698153401        4.55633510063539        1.21260585106430
H           -3.47893370469723        4.63009087944828       -0.50433517276556
H           -4.69515612378329        4.92590276945402        0.72753411805216
H           -1.01321121676404        2.86931466571956        2.76184628377172

          :  Hamiltonian                  GFN2-xTB          :
         :: total energy             -99.406590294038 Eh    ::
         :: gradient norm              0.003996543405 Eh/a0 ::
         :: HOMO-LUMO gap              1.674749002487 eV    ::
         :: SCC energy              -100.785367459961 Eh    ::
         :: -> dispersion             -0.075139774174 Eh    ::
         :: repulsion energy           1.377539798991 Eh    ::

    * Orbital Energies and Occupations

         #    Occupation            Energy/Eh            Energy/eV
      -------------------------------------------------------------
         1        2.0000           -0.8088697             -22.0105
       ...           ...                  ...                  ...
        78        1.9983           -0.5290978             -14.3975
        79        1.9983           -0.5288147             -14.3898
        80        1.9982           -0.5282626             -14.3748
        81        1.9975           -0.5229711             -14.2308
        82        1.9971           -0.5201122             -14.1530
        83        1.9960           -0.5153935             -14.0246
        84        1.9953           -0.5126465             -13.9498
        85        1.9944           -0.5098205             -13.8729
        86        1.9812           -0.4905902             -13.3496
        87        1.9786           -0.4885596             -13.2944
        88        1.9404           -0.4720113             -12.8441
        89        1.8732           -0.4595023             -12.5037
        90        1.8434           -0.4559112             -12.4060 (HOMO)
        91        0.3890           -0.3943653             -10.7312 (LUMO)
        92        0.0156           -0.3401493              -9.2559
        93        0.0036           -0.3166474              -8.6164
        94        0.0030           -0.3137411              -8.5373
        95        0.0027           -0.3124845              -8.5031
        96        0.0024           -0.3101809              -8.4405
        97        0.0000           -0.1909773              -5.1968
        98        0.0000           -0.1876678              -5.1067
        99                         -0.1366946              -3.7197
       100                         -0.0686787              -1.8688
       101                         -0.0643323              -1.7506
       ...                                ...                  ...
       171                          0.5761905              15.6789
      -------------------------------------------------------------
                  HL-Gap            0.0615459 Eh            1.6747 eV

     #   Z          covCN         q      C6AA      α(0)
     1   7 N        1.773    -0.267    27.755     7.801
     2   6 C        2.826     0.101    25.764     8.317
     3   6 C        3.907     0.007    20.411     6.422
     4   6 C        2.974     0.003    27.958     8.673
     5   6 C        2.920    -0.080    29.988     8.980
     6   6 C        2.862     0.130    25.153     8.221
     7   8 O        1.706    -0.229    17.805     5.697
     8   6 C        3.644     0.027    20.452     6.500
     9   6 C        2.864     0.129    25.180     8.225
    10   8 O        1.706    -0.228    17.787     5.694
    11   6 C        3.645     0.027    20.456     6.500
    12   6 C        2.914    -0.075    29.870     8.962
    13   6 C        2.921    -0.054    29.336     8.882
    14   6 C        3.812    -0.065    21.738     6.636
    15   6 C        3.802    -0.069    21.818     6.650
    16   6 C        2.843     0.008    27.836     8.647
    17   7 N        2.729     0.010    21.089     6.820
    18   6 C        3.756    -0.016    20.917     6.521
    19   6 C        3.808    -0.070    21.842     6.653
    20   6 C        2.969    -0.000    28.033     8.685
    21   6 C        2.922    -0.049    29.212     8.863
    22   6 C        2.914    -0.067    29.679     8.933
    23   6 C        2.864     0.133    25.081     8.209
    24   8 O        1.706    -0.222    17.691     5.679
    25   6 C        3.645     0.025    20.491     6.506
    26   6 C        2.863     0.133    25.085     8.210
    27   8 O        1.706    -0.224    17.722     5.684
    28   6 C        3.645     0.027    20.454     6.500
    29   6 C        2.919    -0.080    29.988     8.980
    30   6 C        3.699    -0.071    22.022     6.711
    31   6 C        3.853    -0.007    20.672     6.467
    32   6 C        3.756    -0.119    22.841     6.814
    33   6 C        3.755    -0.118    22.814     6.811
    34   1 H        0.926     0.052     2.293     2.368
    35   1 H        0.924     0.054     2.271     2.357
    36   1 H        0.925     0.081     1.965     2.192
    37   1 H        0.924     0.048     2.349     2.397
    38   1 H        0.924     0.055     2.258     2.350
    39   1 H        0.925     0.081     1.966     2.193
    40   1 H        0.924     0.048     2.348     2.396
    41   1 H        0.926     0.052     2.300     2.372
    42   1 H        0.926     0.038     2.478     2.462
    43   1 H        0.925     0.060     2.197     2.318
    44   1 H        0.924     0.054     2.276     2.359
    45   1 H        0.925     0.066     2.135     2.285
    46   1 H        0.924     0.080     1.982     2.202
    47   1 H        0.922     0.009     2.915     2.670
    48   1 H        0.926     0.070     2.090     2.261
    49   1 H        0.924     0.067     2.117     2.275
    50   1 H        0.924     0.067     2.120     2.277
    51   1 H        0.924     0.055     2.257     2.349
    52   1 H        0.924     0.056     2.250     2.346
    53   1 H        0.926     0.045     2.383     2.414
    54   1 H        0.926     0.059     2.216     2.328
    55   1 H        0.924     0.054     2.272     2.357
    56   1 H        0.924     0.056     2.243     2.342
    57   1 H        0.925     0.083     1.947     2.182
    58   1 H        0.925     0.082     1.959     2.189
    59   1 H        0.924     0.049     2.337     2.390
    60   1 H        0.924     0.053     2.289     2.366
    61   1 H        0.926     0.047     2.356     2.400
    62   1 H        0.924     0.076     2.020     2.223
    63   1 H        0.924     0.080     1.979     2.200
    64   1 H        0.925     0.079     1.985     2.203
    65   1 H        0.924     0.038     2.482     2.464
    66   1 H        0.925     0.070     2.082     2.257
    67   1 H        0.925     0.036     2.507     2.476
    68   1 H        0.925     0.051     2.305     2.374
    69   1 H        0.925     0.058     2.217     2.329
    70   1 H        0.925     0.034     2.525     2.485
    71   1 H        0.925     0.055     2.261     2.352
    72   1 H        0.860     0.157     1.353     1.822

Wiberg/Mayer (AO) data.
largest (>0.10) Wiberg bond orders for each atom

     #   Z sym  total        # sym  WBO       # sym  WBO       # sym  WBO
 ---------------------------------------------------------------------------
     1   7 N    3.045 --     2 C    1.957    72 H    0.941
     2   6 C    3.925 --     1 N    1.957     3 C    0.995    47 H    0.892
     3   6 C    3.976 --     2 C    0.995     4 C    0.968    14 C    0.958
                            31 C    0.942
     4   6 C    3.950 --    13 C    1.414     5 C    1.368     3 C    0.968
     5   6 C    3.962 --     6 C    1.401     4 C    1.368    34 H    0.958
     6   6 C    3.906 --     5 C    1.401     9 C    1.221     7 O    1.100
     7   8 O    2.255 --     6 C    1.100     8 C    0.978
     8   6 C    3.932 --     7 O    0.978    36 H    0.977    35 H    0.974
                            37 H    0.973
     9   6 C    3.902 --    12 C    1.393     6 C    1.221    10 O    1.102
    10   8 O    2.253 --     9 C    1.102    11 C    0.978
    11   6 C    3.931 --    10 O    0.978    39 H    0.977    40 H    0.974
                            38 H    0.973
    12   6 C    3.963 --    13 C    1.401     9 C    1.393    41 H    0.964
    13   6 C    3.955 --     4 C    1.414    12 C    1.401    42 H    0.962
    14   6 C    3.972 --    15 C    0.980    44 H    0.972    43 H    0.969
                             3 C    0.958
    15   6 C    3.987 --    16 C    1.059    14 C    0.980    45 H    0.962
                            46 H    0.928
    16   6 C    3.600 --    17 N    1.398    15 C    1.059    48 H    0.957
    17   7 N    3.480 --    16 C    1.398    30 C    0.998    18 C    0.988
    18   6 C    3.956 --    17 N    0.988    50 H    0.968    19 C    0.967
                            49 H    0.964
    19   6 C    3.976 --    20 C    1.008    52 H    0.972    51 H    0.972
                            18 C    0.967
    20   6 C    3.944 --    21 C    1.409    29 C    1.380    19 C    1.008
    21   6 C    3.950 --    22 C    1.417    20 C    1.409    53 H    0.968
    22   6 C    3.959 --    21 C    1.417    23 C    1.383    54 H    0.963
    23   6 C    3.895 --    22 C    1.383    26 C    1.219    24 O    1.110
    24   8 O    2.254 --    23 C    1.110    25 C    0.976
    25   6 C    3.928 --    57 H    0.977    24 O    0.976    55 H    0.973
                            56 H    0.973
    26   6 C    3.899 --    29 C    1.395    23 C    1.219    27 O    1.104
    27   8 O    2.255 --    26 C    1.104    28 C    0.978
    28   6 C    3.932 --    27 O    0.978    58 H    0.977    59 H    0.973
                            60 H    0.973
    29   6 C    3.959 --    26 C    1.395    20 C    1.380    61 H    0.962
    30   6 C    3.957 --    17 N    0.998    64 H    0.978    62 H    0.966
                            63 H    0.960
    31   6 C    3.972 --    33 C    1.009    32 C    1.008    65 H    0.960
                             3 C    0.942
    32   6 C    3.978 --    31 C    1.008    67 H    0.982    68 H    0.981
                            66 H    0.973
    33   6 C    3.984 --    31 C    1.009    70 H    0.983    71 H    0.980
                            69 H    0.977
    34   1 H    0.996 --     5 C    0.958
    35   1 H    0.993 --     8 C    0.974
    36   1 H    0.993 --     8 C    0.977
    37   1 H    0.994 --     8 C    0.973
    38   1 H    0.993 --    11 C    0.973
    39   1 H    0.993 --    11 C    0.977
    40   1 H    0.993 --    11 C    0.974
    41   1 H    0.996 --    12 C    0.964
    42   1 H    0.998 --    13 C    0.962
    43   1 H    0.995 --    14 C    0.969
    44   1 H    0.996 --    14 C    0.972
    45   1 H    0.995 --    15 C    0.962
    46   1 H    0.971 --    15 C    0.928
    47   1 H    0.987 --     2 C    0.892
    48   1 H    0.995 --    16 C    0.957
    49   1 H    0.991 --    18 C    0.964
    50   1 H    0.994 --    18 C    0.968
    51   1 H    0.996 --    19 C    0.972
    52   1 H    0.996 --    19 C    0.972
    53   1 H    0.997 --    21 C    0.968
    54   1 H    0.995 --    22 C    0.963
    55   1 H    0.991 --    25 C    0.973
    56   1 H    0.992 --    25 C    0.973
    57   1 H    0.992 --    25 C    0.977
    58   1 H    0.993 --    28 C    0.977
    59   1 H    0.993 --    28 C    0.973
    60   1 H    0.993 --    28 C    0.973
    61   1 H    0.997 --    29 C    0.962
    62   1 H    0.985 --    30 C    0.966
    63   1 H    0.987 --    30 C    0.960
    64   1 H    0.993 --    30 C    0.978
    65   1 H    0.993 --    31 C    0.960
    66   1 H    0.991 --    32 C    0.973
    67   1 H    0.997 --    32 C    0.982
    68   1 H    0.994 --    32 C    0.981
    69   1 H    0.994 --    33 C    0.977
    70   1 H    0.997 --    33 C    0.983
    71   1 H    0.994 --    33 C    0.980
    72   1 H    0.970 --     1 N    0.941
 ---------------------------------------------------------------------------

molecular dipole:
                 x           y           z       tot (Debye)
 q only:        0.661      -0.050      -0.808
   full:        0.956      -0.094      -0.993       3.512

           -------------------------------------------------
          | TOTAL ENERGY              -99.406590294038 Eh   |
          | GRADIENT NORM               0.003996543405 Eh/α |
          | HOMO-LUMO GAP               1.674749002487 eV   |
           -------------------------------------------------

 * finished run on 2024/04/06 at 11:15:11.969
