   * xtb version 6.6.1 (8d0f1dd) compiled by 'conda@1efc2f54142f' on 2023-08-01
          program call               : xtb struc.xyz --opt loose --input .xc1 --gfn2

   ID    Z sym.   atoms
    1    6 C      1, 3, 5-7, 10, 11, 14
    2    7 N      2, 4, 9, 13
    3    8 O      8, 12
    4    1 H      15-25
constraining bond 3 16 to    5.1400000 Å, actual value:    2.7548643 Å

          :  Hamiltonian                  GFN2-xTB          :
 * total energy  :   -32.0876196 Eh     change       -0.6633627E-10 Eh
 * total energy  :   -36.1259555 Eh     change       -0.4038336E+01 Eh
 * total energy  :   -39.1252793 Eh     change       -0.2999324E+01 Eh
 * total energy  :   -40.9292773 Eh     change       -0.1803998E+01 Eh
 * total energy  :   -41.7033972 Eh     change       -0.7741198E+00 Eh
 * total energy  :   -41.8478982 Eh     change       -0.1445010E+00 Eh
 * total energy  :   -41.8631320 Eh     change       -0.1523380E-01 Eh
 * total energy  :   -41.8915639 Eh     change       -0.2843190E-01 Eh
 * total energy  :   -41.9042366 Eh     change       -0.1267264E-01 Eh
 * total energy  :   -41.9136497 Eh     change       -0.9413179E-02 Eh
 * total energy  :   -42.0797469 Eh     change       -0.2839347E-02 Eh
 * total energy  :   -42.0819130 Eh     change       -0.2166101E-02 Eh
 * total energy  :   -42.0824269 Eh     change       -0.5139295E-03 Eh
 * total energy  :   -42.0826367 Eh     change       -0.2098238E-03 Eh
 * total energy  :   -42.0827727 Eh     change       -0.1360088E-03 Eh
 * total energy  :   -42.0828626 Eh     change       -0.8986764E-04 Eh
 * total energy  :   -42.0829582 Eh     change       -0.9559224E-04 Eh
 * total energy  :   -42.0830074 Eh     change       -0.4923967E-04 Eh
 * total energy  :   -42.0830572 Eh     change       -0.4979712E-04 Eh
   *** GEOMETRY OPTIMIZATION CONVERGED AFTER 33 ITERATIONS ***

 final structure:
================
25
 xtb: 6.6.1 (8d0f1dd)
C            3.15793575924760        0.89997777487798        0.23670850690654
N            2.25856087611084       -0.07765406328641        0.17336880436975
C            2.47592368870523       -1.41422397582302        0.19536638567589
N            1.29265347798004       -2.07302556874655        0.12897289499320
C            0.29089714304390       -1.14756701951601        0.06417584621555
C            0.87964807472236        0.10194310654842        0.08924919312848
C            0.09544806994148        1.32099843769510        0.04198267936995
O            0.53958364879242        2.44267264125683        0.04911057649471
N           -1.26727703005419        1.03361404748884       -0.01421575511939
C           -2.19278066568582        2.16048540476076       -0.05238525601085
C           -1.88089606488280       -0.20431999674780       -0.03931297607099
O           -3.06934954506340       -0.33784465365493       -0.08948506347537
N           -1.03309295539278       -1.34000551512219       -0.00265194387637
C           -1.62852041127872       -2.66106935866065       -0.03323233949597
H            4.20359349474009        0.65848528777484        0.29223629848413
H            4.27122323253539        3.14916558018716       -1.34455013270397
H            2.80089246249239        1.91617335153027        0.24850679412704
H            3.43642669481073       -1.88234924373542        0.26797338066749
H           -1.61060002133169        3.07804814444669       -0.05117221986372
H           -2.80730016304188        2.10054509118225       -0.94975362060570
H           -2.84888028085402        2.12663256456193        0.81683344128459
H           -1.36947825392166       -3.21890498871429        0.86721329741949
H           -1.30700073650947       -3.20645205521721       -0.92106876062200
H           -2.70941171597178       -2.52941022554081       -0.07032297075679
H            1.18223273496552       -3.07767622594570        0.12762455736432

          :  Hamiltonian                  GFN2-xTB          :
         :: total energy             -42.083057222497 Eh    ::
         :: gradient norm              0.003048615517 Eh/a0 ::
         :: HOMO-LUMO gap              0.254156575235 eV    ::
         :: SCC energy               -42.606453469436 Eh    ::
         :: -> dispersion             -0.022811648896 Eh    ::
         :: repulsion energy           0.523296745914 Eh    ::

    * Orbital Energies and Occupations

         #    Occupation            Energy/Eh            Energy/eV
      -------------------------------------------------------------
         1        2.0000           -0.9120031             -24.8169
       ...           ...                  ...                  ...
        25        2.0000           -0.6645198             -18.0825
        26        2.0000           -0.6613533             -17.9963
        27        2.0000           -0.6526972             -17.7608
        28        2.0000           -0.6409199             -17.4403
        29        2.0000           -0.6271251             -17.0649
        30        2.0000           -0.6226507             -16.9432
        31        2.0000           -0.6154106             -16.7462
        32        1.9999           -0.5931245             -16.1397
        33        1.9990           -0.5738646             -15.6157
        34        1.9920           -0.5576280             -15.1738
        35        1.9912           -0.5568690             -15.1532
        36        1.9886           -0.5548175             -15.0974
        37        1.3013           -0.5188624             -14.1190 (HOMO)
        38        0.7280           -0.5095224             -13.8648 (LUMO)
        39        0.0000           -0.4096100             -11.1461
        40        0.0000           -0.4003247             -10.8934
        41                         -0.3642920              -9.9129
        42                         -0.2818308              -7.6690
        43                         -0.2035667              -5.5393
        44                         -0.1878662              -5.1121
        45                         -0.1427377              -3.8841
        46                         -0.1113755              -3.0307
        47                         -0.0861387              -2.3440
        48                         -0.0487974              -1.3278
       ...                                ...                  ...
        67                          0.5650218              15.3750
      -------------------------------------------------------------
                  HL-Gap            0.0093401 Eh            0.2542 eV

     #   Z          covCN         q      C6AA      α(0)
     1   6 C        2.789    -0.064    29.583     8.909
     2   7 N        2.813     0.130    19.022     6.478
     3   6 C        3.033     0.033    27.234     8.560
     4   7 N        2.781    -0.056    22.313     7.016
     5   6 C        3.024     0.120    25.340     8.257
     6   6 C        3.106    -0.043    28.914     8.810
     7   6 C        2.764     0.275    22.343     7.741
     8   8 O        0.858    -0.374    21.171     6.169
     9   7 N        2.746    -0.087    22.935     7.113
    10   6 C        3.711    -0.061    21.821     6.676
    11   6 C        2.729     0.318    21.591     7.607
    12   8 O        0.859    -0.358    20.850     6.122
    13   7 N        2.738    -0.058    22.363     7.024
    14   6 C        3.696    -0.072    22.058     6.718
    15   1 H        0.926     0.111     1.691     2.033
    16   1 H        0.000     0.091     4.656     3.945
    17   1 H        0.926     0.144     1.434     1.873
    18   1 H        0.926     0.123     1.587     1.970
    19   1 H        0.925     0.111     1.688     2.032
    20   1 H        0.925     0.097     1.810     2.104
    21   1 H        0.925     0.097     1.816     2.107
    22   1 H        0.924     0.082     1.963     2.191
    23   1 H        0.924     0.082     1.955     2.187
    24   1 H        0.925     0.128     1.547     1.945
    25   1 H        0.860     0.230     0.966     1.540

Wiberg/Mayer (AO) data.
largest (>0.10) Wiberg bond orders for each atom

     #   Z sym  total        # sym  WBO       # sym  WBO       # sym  WBO
 ---------------------------------------------------------------------------
     1   6 C    3.419 --     2 N    1.328    15 H    0.966    17 H    0.951
     2   7 N    3.766 --     1 C    1.328     3 C    1.247     6 C    1.090
     3   6 C    3.670 --     4 N    1.265     2 N    1.247    18 H    0.954
     4   7 N    3.525 --     3 C    1.265     5 C    1.176    25 H    0.918
     5   6 C    3.947 --     6 C    1.365    13 N    1.228     4 N    1.176
     6   6 C    3.878 --     5 C    1.365     2 N    1.090     7 C    1.073
     7   6 C    3.965 --     8 O    1.695     9 N    1.103     6 C    1.073
     8   8 O    2.054 --     7 C    1.695     9 N    0.151
     9   7 N    3.559 --    11 C    1.128     7 C    1.103    10 C    0.968
                             8 O    0.151    12 O    0.141
    10   6 C    3.917 --    19 H    0.970     9 N    0.968    20 H    0.966
                            21 H    0.965
    11   6 C    3.960 --    12 O    1.718     9 N    1.128    13 N    1.023
    12   8 O    2.076 --    11 C    1.718     9 N    0.141    13 N    0.121
    13   7 N    3.550 --     5 C    1.228    11 C    1.023    14 C    0.975
                            12 O    0.121
    14   6 C    3.925 --    13 N    0.975    22 H    0.971    23 H    0.970
                            24 H    0.963
    15   1 H    0.987 --     1 C    0.966
    16   1 H    0.071
    17   1 H    0.979 --     1 C    0.951
    18   1 H    0.984 --     3 C    0.954
    19   1 H    0.987 --    10 C    0.970
    20   1 H    0.986 --    10 C    0.966
    21   1 H    0.986 --    10 C    0.965
    22   1 H    0.990 --    14 C    0.971
    23   1 H    0.989 --    14 C    0.970
    24   1 H    0.983 --    14 C    0.963
    25   1 H    0.947 --     4 N    0.918
 ---------------------------------------------------------------------------

molecular dipole:
                 x           y           z       tot (Debye)
 q only:        2.837      -1.876       0.009
   full:        3.135      -2.375       0.025       9.998

           -------------------------------------------------
          | TOTAL ENERGY              -42.083057222497 Eh   |
          | GRADIENT NORM               0.003048615517 Eh/α |
          | HOMO-LUMO GAP               0.254156575235 eV   |
           -------------------------------------------------

 * finished run on 2024/06/05 at 19:57:55.783
