   * xtb version 6.6.1 (8d0f1dd) compiled by 'conda@1efc2f54142f' on 2023-08-01
          program call               : xtb struc.xyz --opt loose --input .xc1 --gfn2

   ID    Z sym.   atoms
    1    7 N      1, 17
    2    6 C      2-6, 8, 9, 11-16, 18-23, 25, 26, 28-33
    3    8 O      7, 10, 24, 27
    4    1 H      34-72
constraining bond 6 41 to    3.7133300 Å, actual value:    3.3971031 Å

          :  Hamiltonian                  GFN2-xTB          :
 * total energy  :   -99.4219861 Eh     change       -0.4035485E-08 Eh
 * total energy  :   -99.4526886 Eh     change       -0.3070242E-01 Eh
 * total energy  :   -99.4789120 Eh     change       -0.2622342E-01 Eh
 * total energy  :   -99.5029756 Eh     change       -0.2406366E-01 Eh
 * total energy  :   -99.5549897 Eh     change       -0.5201410E-01 Eh
 * total energy  :   -99.5637832 Eh     change       -0.8793511E-02 Eh
 * total energy  :   -99.6009328 Eh     change       -0.3714958E-01 Eh
 * total energy  :   -99.7122251 Eh     change       -0.1112923E+00 Eh
 * total energy  :   -99.8869542 Eh     change       -0.1747292E+00 Eh
 * total energy  :  -100.0986491 Eh     change       -0.2116948E+00 Eh
 * total energy  :  -100.7080121 Eh     change       -0.9839316E-04 Eh
 * total energy  :  -100.7081069 Eh     change       -0.9480713E-04 Eh
 * total energy  :  -100.7081963 Eh     change       -0.8945675E-04 Eh
 * total energy  :  -100.7082716 Eh     change       -0.7522940E-04 Eh
 * total energy  :  -100.7083612 Eh     change       -0.8963227E-04 Eh
 * total energy  :  -100.7084472 Eh     change       -0.8600526E-04 Eh
 * total energy  :  -100.7085271 Eh     change       -0.7991004E-04 Eh
 * total energy  :  -100.7085740 Eh     change       -0.4689624E-04 Eh
 * total energy  :  -100.7086165 Eh     change       -0.4247811E-04 Eh
   *** GEOMETRY OPTIMIZATION CONVERGED AFTER 67 ITERATIONS ***

 final structure:
================
72
 xtb: 6.6.1 (8d0f1dd)
N           -1.80155884866177        2.95814116723650        2.25881118754646
C           -1.87291375135239        2.19942867848604        1.27012208309942
C           -3.07800756875508        2.06244354959126        0.38238743580232
C           -3.67934807985914        0.67262068487043        0.55731440294133
C           -4.73030109998311        0.25316552695217       -0.17830761690723
C           -5.41935433640909       -1.09915931730140        0.01257012935171
O           -5.95532249398064       -1.58805120222054       -1.20582550922065
C           -5.05853284415582       -1.75649323459573       -2.27465491608915
C           -4.35823324419558       -2.07632807695947        0.59045992157454
O           -4.53391689321294       -3.35330976670921        0.26352392755881
C           -3.62453103870401       -4.29100430069556        0.80314358687847
C           -3.44292031093594       -1.55381745652944        1.43709659617495
C           -3.15808818254914       -0.23053383864197        1.55499832056662
C           -2.56606515519747        2.19130890546762       -1.07622986595409
C           -1.71741918532461        1.00074842761434       -1.55585590289855
C           -0.35230230307875        0.98508012987155       -0.98205122382329
N            0.30740228924385       -0.10281545799230       -0.60057361303582
C            1.69747020235652       -0.01697771873361       -0.21857891870634
C            2.63648475809724       -0.46049309938842       -1.35712045457764
C            4.06614545024488       -0.24397672793069       -0.94616601830894
C            4.68554406220574        0.97477113387871       -1.17231986134344
C            5.99119449751622        1.19529527001797       -0.76234865986599
C            6.70417878585748        0.19870184004004       -0.11121452782768
O            7.96996031550535        0.29986573575898        0.33237837406836
C            8.67609352206268        1.50293861249055        0.13241627070539
C            6.07694668833536       -1.05658076161749        0.12506618886806
O            6.84273904784523       -1.96726990239379        0.75666246913202
C            6.32380732905863       -3.25081105702727        1.01043662454356
C            4.76957916247390       -1.25250735457066       -0.29208787665074
C           -0.31415716637230       -1.40528148219658       -0.58377893751466
C           -4.17245680024379        3.13186233023220        0.66434961502035
C           -4.77577810307533        2.95962017927469        2.05653196351553
C           -3.67041629231606        4.56319449893707        0.49436728104854
H           -5.22357614431700        0.89436542720327       -0.89045636773958
H           -4.47288959537911       -0.84695516674454       -2.45236897395150
H           -5.67175345357423       -1.97141649563026       -3.14680726707915
H           -4.37614240566489       -2.59720032870707       -2.10352064677266
H           -3.30742383401588       -3.97756383728689        1.80103754584990
H           -4.14633468813719       -5.24490501657450        0.84596459297390
H           -2.74750361305882       -4.38420502475738        0.15723342704689
H           -6.02430745346049       -1.02902105933064        0.51134111398625
H           -2.55640549368050        0.14950378613745        2.36400901311649
H           -3.42993599211273        2.28060146713944       -1.73442555036678
H           -1.98026738010192        3.10653741733980       -1.16848080205400
H           -2.24586936645222        0.06934818518209       -1.35442581853098
H           -1.61895850173636        1.09677350208720       -2.64574388343105
H           -1.03315187516141        1.56809118858033        0.91486619802642
H            0.21339683421360        1.90482204903858       -1.01784824708364
H            1.86786188805143       -0.64435743675932        0.66028579973591
H            1.93447193236781        1.01519267841496        0.04870047245090
H            2.41200215502149        0.13076900445531       -2.24661715093734
H            2.46359174245470       -1.51213075247932       -1.58860265036850
H            4.15545079770003        1.76365019430399       -1.68413857568790
H            6.44826457760883        2.15101360887533       -0.95931532594960
H            8.18965163998853        2.34175535021189        0.63952360291227
H            8.78429736318129        1.73159578567101       -0.93202795528641
H            9.65983581792458        1.33956317933655        0.56823376975063
H            7.12530931028761       -3.79707708336088        1.50381630964476
H            5.45422941419351       -3.20846498009860        1.67417120611820
H            6.05325232161895       -3.76489022517991        0.08293534663205
H            4.28759133447573       -2.20260621519267       -0.12245660635084
H           -0.61159618372214       -1.71041155046155       -1.58900284184886
H           -1.19889529542588       -1.39958157857543        0.06017145973072
H            0.39076758595569       -2.13430735387087       -0.19337931800195
H           -4.96709245130558        2.96402314946590       -0.07109485539721
H           -4.02671147800689        3.16223499874939        2.81573742742993
H           -5.15986860010932        1.95185253576909        2.19841548863897
H           -5.59770310308618        3.65930301592840        2.18582670170545
H           -2.85907188071273        4.76544490521848        1.18749102063705
H           -3.33418535450965        4.75871556262925       -0.52062538910439
H           -4.48209346438500        5.25210044012854        0.71290745393594
H           -0.92764392237477        2.98820028040508        2.77441264255492

          :  Hamiltonian                  GFN2-xTB          :
         :: total energy            -100.708616482555 Eh    ::
         :: gradient norm              0.003716426723 Eh/a0 ::
         :: HOMO-LUMO gap              0.882974571636 eV    ::
         :: SCC energy              -100.669787756159 Eh    ::
         :: -> dispersion             -0.076054664686 Eh    ::
         :: repulsion energy           1.488485868803 Eh    ::

    * Orbital Energies and Occupations

         #    Occupation            Energy/Eh            Energy/eV
      -------------------------------------------------------------
         1        2.0000           -0.8271224             -22.5071
       ...           ...                  ...                  ...
        78        1.9983           -0.5317766             -14.4704
        79        1.9982           -0.5310297             -14.4501
        80        1.9981           -0.5301532             -14.4262
        81        1.9969           -0.5226919             -14.2232
        82        1.9958           -0.5178747             -14.0921
        83        1.9951           -0.5155326             -14.0284
        84        1.9949           -0.5146313             -14.0038
        85        1.9882           -0.5013523             -13.6425
        86        1.9777           -0.4912329             -13.3671
        87        1.9721           -0.4876786             -13.2704
        88        1.9388           -0.4749585             -12.9243
        89        1.8361           -0.4584855             -12.4760
        90        1.4225           -0.4345072             -11.8235 (HOMO)
        91        0.4818           -0.4020585             -10.9406 (LUMO)
        92        0.3912           -0.3978443             -10.8259
        93        0.0154           -0.3433464              -9.3429
        94        0.0026           -0.3152051              -8.5772
        95        0.0023           -0.3129488              -8.5158
        96        0.0021           -0.3113234              -8.4715
        97        0.0000           -0.2344135              -6.3787
        98        0.0000           -0.1905181              -5.1843
        99                         -0.1408875              -3.8337
       100                         -0.0962084              -2.6180
       101                         -0.0742396              -2.0202
       ...                                ...                  ...
       171                          1.0866453              29.5691
      -------------------------------------------------------------
                  HL-Gap            0.0324487 Eh            0.8830 eV

     #   Z          covCN         q      C6AA      α(0)
     1   7 N        1.774    -0.267    27.741     7.799
     2   6 C        2.826     0.102    25.733     8.312
     3   6 C        3.907     0.008    20.384     6.417
     4   6 C        2.966     0.007    27.866     8.659
     5   6 C        2.909    -0.073    29.810     8.953
     6   6 C        3.749     0.092    19.120     6.236
     7   8 O        1.700    -0.286    18.750     5.846
     8   6 C        3.638     0.037    20.323     6.485
     9   6 C        2.862     0.135    25.044     8.203
    10   8 O        1.705    -0.205    17.406     5.633
    11   6 C        3.657     0.021    20.509     6.501
    12   6 C        1.983    -0.141    35.041     9.560
    13   6 C        2.922    -0.036    28.892     8.815
    14   6 C        3.813    -0.066    21.748     6.638
    15   6 C        3.802    -0.067    21.789     6.646
    16   6 C        2.844     0.007    27.857     8.650
    17   7 N        2.729     0.010    21.084     6.820
    18   6 C        3.756    -0.017    20.924     6.522
    19   6 C        3.808    -0.070    21.841     6.653
    20   6 C        2.969    -0.000    28.027     8.684
    21   6 C        2.922    -0.049    29.208     8.863
    22   6 C        2.914    -0.067    29.675     8.933
    23   6 C        2.865     0.134    25.069     8.207
    24   8 O        1.706    -0.220    17.656     5.673
    25   6 C        3.645     0.024    20.497     6.507
    26   6 C        2.863     0.134    25.078     8.208
    27   8 O        1.706    -0.223    17.702     5.681
    28   6 C        3.645     0.027    20.462     6.502
    29   6 C        2.919    -0.079    29.983     8.979
    30   6 C        3.699    -0.070    22.008     6.709
    31   6 C        3.852    -0.009    20.700     6.471
    32   6 C        3.756    -0.119    22.826     6.812
    33   6 C        3.755    -0.118    22.824     6.812
    34   1 H        0.926     0.063     2.165     2.301
    35   1 H        0.924     0.028     2.612     2.527
    36   1 H        0.925     0.075     2.035     2.231
    37   1 H        0.924     0.040     2.454     2.450
    38   1 H        0.924     0.069     2.102     2.267
    39   1 H        0.925     0.084     1.934     2.175
    40   1 H        0.924     0.055     2.257     2.349
    41   1 H        0.930     0.124     1.580     1.966
    42   1 H        0.926     0.050     2.319     2.381
    43   1 H        0.925     0.061     2.192     2.315
    44   1 H        0.924     0.056     2.247     2.344
    45   1 H        0.925     0.063     2.167     2.302
    46   1 H        0.923     0.079     1.991     2.207
    47   1 H        0.922     0.009     2.915     2.670
    48   1 H        0.926     0.070     2.080     2.255
    49   1 H        0.924     0.069     2.101     2.267
    50   1 H        0.924     0.067     2.114     2.274
    51   1 H        0.924     0.056     2.252     2.347
    52   1 H        0.924     0.055     2.256     2.349
    53   1 H        0.926     0.045     2.377     2.411
    54   1 H        0.926     0.059     2.208     2.323
    55   1 H        0.924     0.055     2.261     2.351
    56   1 H        0.924     0.057     2.238     2.339
    57   1 H        0.925     0.083     1.947     2.182
    58   1 H        0.925     0.083     1.951     2.185
    59   1 H        0.924     0.049     2.329     2.387
    60   1 H        0.924     0.053     2.282     2.362
    61   1 H        0.926     0.048     2.351     2.398
    62   1 H        0.924     0.074     2.046     2.237
    63   1 H        0.924     0.081     1.973     2.196
    64   1 H        0.925     0.080     1.977     2.199
    65   1 H        0.924     0.039     2.460     2.453
    66   1 H        0.925     0.070     2.081     2.256
    67   1 H        0.925     0.034     2.529     2.487
    68   1 H        0.925     0.053     2.284     2.363
    69   1 H        0.925     0.060     2.197     2.318
    70   1 H        0.925     0.035     2.517     2.481
    71   1 H        0.925     0.056     2.242     2.341
    72   1 H        0.860     0.158     1.349     1.819

Wiberg/Mayer (AO) data.
largest (>0.10) Wiberg bond orders for each atom

     #   Z sym  total        # sym  WBO       # sym  WBO       # sym  WBO
 ---------------------------------------------------------------------------
     1   7 N    3.041 --     2 C    1.956    72 H    0.941
     2   6 C    3.925 --     1 N    1.956     3 C    0.996    47 H    0.893
     3   6 C    3.968 --     2 C    0.996     4 C    0.956    14 C    0.955
                            31 C    0.945
     4   6 C    3.910 --     5 C    1.690    13 C    1.131     3 C    0.956
     5   6 C    3.796 --     4 C    1.690     6 C    0.976    34 H    0.955
     6   6 C    3.881 --     7 O    0.982     5 C    0.976    41 H    0.931
                             9 C    0.902
     7   8 O    2.084 --     8 C    0.995     6 C    0.982
     8   6 C    3.941 --     7 O    0.995    36 H    0.976    37 H    0.973
                            35 H    0.972
     9   6 C    3.689 --    12 C    1.501    10 O    1.157     6 C    0.902
    10   8 O    2.277 --     9 C    1.157    11 C    0.965
    11   6 C    3.916 --    39 H    0.976    40 H    0.972    38 H    0.970
                            10 O    0.965
    12   6 C    3.241 --    13 C    1.530     9 C    1.501
    13   6 C    3.722 --    12 C    1.530     4 C    1.131    42 H    0.952
    14   6 C    3.973 --    15 C    0.985    44 H    0.971    43 H    0.970
                             3 C    0.955
    15   6 C    3.988 --    16 C    1.058    14 C    0.985    45 H    0.960
                            46 H    0.927
    16   6 C    3.598 --    17 N    1.399    15 C    1.058    48 H    0.957
    17   7 N    3.479 --    16 C    1.399    30 C    0.998    18 C    0.988
    18   6 C    3.955 --    17 N    0.988    50 H    0.968    19 C    0.967
                            49 H    0.964
    19   6 C    3.976 --    20 C    1.008    52 H    0.972    51 H    0.972
                            18 C    0.967
    20   6 C    3.943 --    21 C    1.408    29 C    1.381    19 C    1.008
    21   6 C    3.948 --    22 C    1.418    20 C    1.408    53 H    0.968
    22   6 C    3.958 --    21 C    1.418    23 C    1.382    54 H    0.963
    23   6 C    3.894 --    22 C    1.382    26 C    1.218    24 O    1.112
    24   8 O    2.256 --    23 C    1.112    25 C    0.975
    25   6 C    3.927 --    57 H    0.977    24 O    0.975    55 H    0.972
                            56 H    0.972
    26   6 C    3.897 --    29 C    1.394    23 C    1.218    27 O    1.106
    27   8 O    2.255 --    26 C    1.106    28 C    0.978
    28   6 C    3.931 --    27 O    0.978    58 H    0.977    59 H    0.973
                            60 H    0.973
    29   6 C    3.958 --    26 C    1.394    20 C    1.381    61 H    0.962
    30   6 C    3.957 --    17 N    0.998    64 H    0.978    62 H    0.968
                            63 H    0.958
    31   6 C    3.973 --    33 C    1.009    32 C    1.008    65 H    0.959
                             3 C    0.945
    32   6 C    3.978 --    31 C    1.008    67 H    0.982    68 H    0.981
                            66 H    0.974
    33   6 C    3.982 --    31 C    1.009    70 H    0.983    71 H    0.980
                            69 H    0.977
    34   1 H    0.990 --     5 C    0.955
    35   1 H    0.997 --     8 C    0.972
    36   1 H    0.993 --     8 C    0.976
    37   1 H    0.993 --     8 C    0.973
    38   1 H    0.993 --    11 C    0.970
    39   1 H    0.991 --    11 C    0.976
    40   1 H    0.990 --    11 C    0.972
    41   1 H    0.966 --     6 C    0.931
    42   1 H    0.985 --    13 C    0.952
    43   1 H    0.995 --    14 C    0.970
    44   1 H    0.995 --    14 C    0.971
    45   1 H    0.995 --    15 C    0.960
    46   1 H    0.970 --    15 C    0.927
    47   1 H    0.987 --     2 C    0.893
    48   1 H    0.994 --    16 C    0.957
    49   1 H    0.990 --    18 C    0.964
    50   1 H    0.994 --    18 C    0.968
    51   1 H    0.996 --    19 C    0.972
    52   1 H    0.996 --    19 C    0.972
    53   1 H    0.997 --    21 C    0.968
    54   1 H    0.995 --    22 C    0.963
    55   1 H    0.991 --    25 C    0.972
    56   1 H    0.991 --    25 C    0.972
    57   1 H    0.992 --    25 C    0.977
    58   1 H    0.992 --    28 C    0.977
    59   1 H    0.993 --    28 C    0.973
    60   1 H    0.992 --    28 C    0.973
    61   1 H    0.996 --    29 C    0.962
    62   1 H    0.986 --    30 C    0.968
    63   1 H    0.986 --    30 C    0.958
    64   1 H    0.993 --    30 C    0.978
    65   1 H    0.992 --    31 C    0.959
    66   1 H    0.991 --    32 C    0.974
    67   1 H    0.997 --    32 C    0.982
    68   1 H    0.994 --    32 C    0.981
    69   1 H    0.993 --    33 C    0.977
    70   1 H    0.997 --    33 C    0.983
    71   1 H    0.994 --    33 C    0.980
    72   1 H    0.970 --     1 N    0.941
 ---------------------------------------------------------------------------

molecular dipole:
                 x           y           z       tot (Debye)
 q only:        1.216      -0.305      -0.660
   full:        1.468      -0.372      -0.950       4.545

           -------------------------------------------------
          | TOTAL ENERGY             -100.708616482555 Eh   |
          | GRADIENT NORM               0.003716426723 Eh/α |
          | HOMO-LUMO GAP               0.882974571636 eV   |
           -------------------------------------------------

 * finished run on 2024/04/06 at 11:16:09.074
