   * xtb version 6.6.1 (8d0f1dd) compiled by 'conda@1efc2f54142f' on 2023-08-01
          program call               : xtb xtbopt.xyz --opt crude --input .xc2 --gfn2

   ID    Z sym.   atoms
    1    7 N      1, 17
    2    6 C      2-6, 8, 9, 11-16, 18-23, 25, 26, 28-33
    3    8 O      7, 10, 24, 27
    4    1 H      34-72
########################################################################
[WARNING] Please study the warnings concerning your input carefully
-1- readin_getIntValue: could not parse ''
########################################################################

          :  Hamiltonian                  GFN2-xTB          :
 * total energy  :   -99.1797860 Eh     change       -0.8290613E-10 Eh
 * total energy  :   -99.2903863 Eh     change       -0.1106003E+00 Eh
 * total energy  :   -99.2921046 Eh     change       -0.1718338E-02 Eh
 * total energy  :   -99.2931527 Eh     change       -0.1048108E-02 Eh
 * total energy  :   -99.2932671 Eh     change       -0.1144037E-03 Eh
   *** GEOMETRY OPTIMIZATION CONVERGED AFTER 5 ITERATIONS ***

 final structure:
================
72
 xtb: 6.6.1 (8d0f1dd)
N           -1.79924591442309        2.97211746632517        2.25934172013570
C           -1.87087827577874        2.20730619363176        1.27502892183905
C           -3.07431842423445        2.06796503114032        0.38438358390228
C           -3.67057677174531        0.67502032345154        0.55261050441804
C           -4.71468417957235        0.25218435647646       -0.19543871743793
C           -5.35917889146445       -1.10483740858424       -0.03954369658535
O           -5.94085892432896       -1.58808280801637       -1.21622574754865
C           -5.06345551484638       -1.77416326430969       -2.30347078121769
C           -4.34701345505967       -2.07736166333101        0.57843593799445
O           -4.51947919561335       -3.35657884142251        0.25676576752199
C           -3.61846779616187       -4.29127162615244        0.81393902486023
C           -3.43578337622865       -1.55416576092094        1.43631369361556
C           -3.15182780731960       -0.22939340569474        1.54745140324675
C           -2.55998802273966        2.19961171951550       -1.07362048999957
C           -1.71126576681773        1.00962859776980       -1.55627447021766
C           -0.34787599244163        0.98874344747051       -0.97940018593243
N            0.30827702120554       -0.10104226230652       -0.59681354977790
C            1.69876469018984       -0.01833940404693       -0.21566907623670
C            2.63632510258079       -0.46246056708296       -1.35514056401553
C            4.06625258142985       -0.24566191439847       -0.94516147657212
C            4.68519100049032        0.97331369239686       -1.17089834360100
C            5.99099415703394        1.19369067367006       -0.76155429966933
C            6.70470110813329        0.19700877211245       -0.11139877152178
O            7.97101239442196        0.29866608715346        0.33086675863742
C            8.67647314145264        1.50186052005090        0.12928381353458
C            6.07777312580969       -1.05826076747064        0.12495828018549
O            6.84335443209049       -1.96967121222898        0.75607533387087
C            6.32299730390489       -3.25286161734286        1.00904527850915
C            4.77031258792697       -1.25410746807491       -0.29177560990366
C           -0.31323011232543       -1.40356248875057       -0.58483186535500
C           -4.17270190184600        3.13266909906709        0.66615276852270
C           -4.77541738090894        2.95411935975472        2.05770515124486
C           -3.67610833904364        4.56624882300227        0.49893730810826
H           -5.21087475032969        0.89656714018374       -0.90377179974799
H           -4.48013829060793       -0.86785462034940       -2.50763119788172
H           -5.69378950386953       -2.00090936191517       -3.16082267921467
H           -4.37948423756407       -2.61190234795862       -2.13216715865069
H           -3.32604635553225       -3.98235211741519        1.82151433402137
H           -4.13514878104593       -5.24876719145335        0.84050438994093
H           -2.72339157333696       -4.37581239213650        0.18982801746005
H           -6.21087485331601       -1.00184738837131        0.65462221890105
H           -2.54735428761489        0.15464550236784        2.35354990358090
H           -3.42384867543170        2.28933980067740       -1.73161344830225
H           -1.97444794305836        3.11482169746386       -1.16448176676121
H           -2.24157883250602        0.07829344784337       -1.36096293048390
H           -1.60979160696014        1.11120995044207       -2.64501028413445
H           -1.03264684540977        1.57113399162634        0.92744964202585
H            0.21975713437130        1.90702040040763       -1.01041585409724
H            1.86831164613531       -0.64700457421156        0.66232551736827
H            1.93793236118763        1.01291743720097        0.05229170834856
H            2.41122412681948        0.12851323916149       -2.24461574270782
H            2.46362813050086       -1.51420385242982       -1.58614570099963
H            4.15462578087827        1.76241791315032       -1.68186621521021
H            6.44778109937006        2.14962175623075       -0.95820535273135
H            8.19076360854248        2.34077128334436        0.63691185010386
H            8.78277513593161        1.73011856262202       -0.93538889884995
H            9.66097009573354        1.33887587089091        0.56342332805807
H            7.12405350376665       -3.80080908402335        1.50127085594487
H            5.45397831263172       -3.20992771618281        1.67347752345974
H            6.05099558523114       -3.76561179201309        0.08124037968251
H            4.28835602715351       -2.20426872620282       -0.12228039907268
H           -0.60804205533570       -1.70704803709159       -1.59143604656416
H           -1.19948934394402       -1.39999923825574        0.05740362214767
H            0.39146771891581       -2.13306009637799       -0.19464858425163
H           -4.96626289185664        2.96321381225450       -0.06986171734539
H           -4.02732367370618        3.15816898180434        2.81700572372893
H           -5.15396460750505        1.94403744034898        2.19593999270636
H           -5.60047699426853        3.64886933275884        2.18916689945237
H           -2.86375510884615        4.76944687714673        1.18987245863839
H           -3.34363990908057        4.76491609949215       -0.51650994075668
H           -4.48945063840204        5.25168730309872        0.72143196250184
H           -0.92835551441949        3.00057853549462        2.77979262774475

          :  Hamiltonian                  GFN2-xTB          :
         :: total energy             -99.293267122804 Eh    ::
         :: gradient norm              0.003297484669 Eh/a0 ::
         :: HOMO-LUMO gap              0.859996756444 eV    ::
         :: SCC energy              -100.646694579958 Eh    ::
         :: -> dispersion             -0.076004427787 Eh    ::
         :: repulsion energy           1.351919404957 Eh    ::

    * Orbital Energies and Occupations

         #    Occupation            Energy/Eh            Energy/eV
      -------------------------------------------------------------
         1        2.0000           -0.8268912             -22.5009
       ...           ...                  ...                  ...
        78        1.9983           -0.5314236             -14.4608
        79        1.9982           -0.5307284             -14.4419
        80        1.9981           -0.5296508             -14.4125
        81        1.9969           -0.5223637             -14.2142
        82        1.9958           -0.5174093             -14.0794
        83        1.9952           -0.5152954             -14.0219
        84        1.9949           -0.5144120             -13.9979
        85        1.9884           -0.5012681             -13.6402
        86        1.9779           -0.4908972             -13.3580
        87        1.9727           -0.4875043             -13.2657
        88        1.9388           -0.4744732             -12.9111
        89        1.8376           -0.4581646             -12.4673
        90        1.4087           -0.4334968             -11.7960 (HOMO)
        91        0.4892           -0.4018925             -10.9361 (LUMO)
        92        0.3946           -0.3975277             -10.8173
        93        0.0155           -0.3429242              -9.3314
        94        0.0026           -0.3148441              -8.5673
        95        0.0023           -0.3125908              -8.5060
        96        0.0022           -0.3118777              -8.4866
        97        0.0000           -0.2352303              -6.4009
        98        0.0000           -0.1901223              -5.1735
        99                         -0.1404803              -3.8227
       100                         -0.0879599              -2.3935
       101                         -0.0734019              -1.9974
       ...                                ...                  ...
       171                          0.5739430              15.6178
      -------------------------------------------------------------
                  HL-Gap            0.0316043 Eh            0.8600 eV

     #   Z          covCN         q      C6AA      α(0)
     1   7 N        1.774    -0.267    27.753     7.801
     2   6 C        2.825     0.102    25.735     8.313
     3   6 C        3.907     0.008    20.383     6.417
     4   6 C        2.966     0.007    27.872     8.660
     5   6 C        2.910    -0.069    29.727     8.940
     6   6 C        3.756     0.112    18.796     6.182
     7   8 O        1.701    -0.276    18.580     5.820
     8   6 C        3.644     0.036    20.313     6.478
     9   6 C        2.864     0.138    24.982     8.193
    10   8 O        1.705    -0.205    17.413     5.634
    11   6 C        3.656     0.022    20.503     6.500
    12   6 C        1.983    -0.143    35.085     9.566
    13   6 C        2.921    -0.035    28.880     8.813
    14   6 C        3.813    -0.066    21.746     6.637
    15   6 C        3.802    -0.067    21.782     6.645
    16   6 C        2.844     0.007    27.866     8.651
    17   7 N        2.729     0.010    21.088     6.820
    18   6 C        3.756    -0.017    20.923     6.522
    19   6 C        3.808    -0.070    21.840     6.653
    20   6 C        2.969    -0.000    28.029     8.684
    21   6 C        2.922    -0.049    29.209     8.863
    22   6 C        2.914    -0.067    29.676     8.933
    23   6 C        2.865     0.134    25.071     8.207
    24   8 O        1.706    -0.220    17.660     5.674
    25   6 C        3.645     0.025    20.496     6.507
    26   6 C        2.863     0.133    25.079     8.209
    27   8 O        1.706    -0.223    17.706     5.681
    28   6 C        3.645     0.027    20.460     6.501
    29   6 C        2.919    -0.079    29.984     8.979
    30   6 C        3.699    -0.069    22.001     6.708
    31   6 C        3.852    -0.009    20.699     6.471
    32   6 C        3.756    -0.119    22.826     6.812
    33   6 C        3.755    -0.119    22.826     6.812
    34   1 H        0.926     0.063     2.166     2.302
    35   1 H        0.924     0.029     2.600     2.522
    36   1 H        0.925     0.076     2.025     2.225
    37   1 H        0.924     0.041     2.436     2.441
    38   1 H        0.924     0.069     2.097     2.265
    39   1 H        0.925     0.084     1.935     2.175
    40   1 H        0.924     0.055     2.262     2.352
    41   1 H        0.923     0.092     1.863     2.135
    42   1 H        0.926     0.050     2.318     2.381
    43   1 H        0.925     0.060     2.193     2.316
    44   1 H        0.924     0.056     2.247     2.344
    45   1 H        0.925     0.062     2.174     2.306
    46   1 H        0.923     0.079     1.994     2.208
    47   1 H        0.922     0.008     2.919     2.672
    48   1 H        0.926     0.070     2.082     2.256
    49   1 H        0.924     0.069     2.102     2.267
    50   1 H        0.924     0.067     2.114     2.273
    51   1 H        0.924     0.055     2.253     2.347
    52   1 H        0.924     0.055     2.257     2.350
    53   1 H        0.926     0.045     2.379     2.412
    54   1 H        0.926     0.059     2.209     2.324
    55   1 H        0.924     0.055     2.262     2.352
    56   1 H        0.924     0.057     2.239     2.340
    57   1 H        0.925     0.083     1.948     2.182
    58   1 H        0.925     0.083     1.953     2.185
    59   1 H        0.924     0.049     2.330     2.387
    60   1 H        0.924     0.053     2.284     2.363
    61   1 H        0.926     0.047     2.352     2.398
    62   1 H        0.924     0.073     2.051     2.240
    63   1 H        0.924     0.080     1.975     2.198
    64   1 H        0.925     0.080     1.978     2.200
    65   1 H        0.924     0.039     2.463     2.455
    66   1 H        0.925     0.070     2.082     2.257
    67   1 H        0.925     0.034     2.533     2.489
    68   1 H        0.925     0.053     2.284     2.363
    69   1 H        0.925     0.061     2.192     2.315
    70   1 H        0.925     0.035     2.517     2.481
    71   1 H        0.925     0.056     2.242     2.342
    72   1 H        0.860     0.158     1.349     1.819

Wiberg/Mayer (AO) data.
largest (>0.10) Wiberg bond orders for each atom

     #   Z sym  total        # sym  WBO       # sym  WBO       # sym  WBO
 ---------------------------------------------------------------------------
     1   7 N    3.040 --     2 C    1.955    72 H    0.941
     2   6 C    3.925 --     1 N    1.955     3 C    0.996    47 H    0.895
     3   6 C    3.968 --     2 C    0.996     4 C    0.957    14 C    0.955
                            31 C    0.946
     4   6 C    3.912 --     5 C    1.676    13 C    1.142     3 C    0.957
     5   6 C    3.798 --     4 C    1.676     6 C    0.993    34 H    0.954
     6   6 C    3.894 --     7 O    0.998     5 C    0.993     9 C    0.921
                            41 H    0.900
     7   8 O    2.093 --     6 C    0.998     8 C    0.989
     8   6 C    3.940 --     7 O    0.989    36 H    0.977    37 H    0.974
                            35 H    0.973
     9   6 C    3.689 --    12 C    1.483    10 O    1.156     6 C    0.921
    10   8 O    2.278 --     9 C    1.156    11 C    0.965
    11   6 C    3.916 --    39 H    0.976    40 H    0.972    38 H    0.970
                            10 O    0.965
    12   6 C    3.220 --    13 C    1.525     9 C    1.483
    13   6 C    3.728 --    12 C    1.525     4 C    1.142    42 H    0.952
    14   6 C    3.973 --    15 C    0.985    44 H    0.971    43 H    0.970
                             3 C    0.955
    15   6 C    3.988 --    16 C    1.058    14 C    0.985    45 H    0.960
                            46 H    0.927
    16   6 C    3.595 --    17 N    1.398    15 C    1.058    48 H    0.957
    17   7 N    3.478 --    16 C    1.398    30 C    0.998    18 C    0.988
    18   6 C    3.955 --    17 N    0.988    50 H    0.968    19 C    0.967
                            49 H    0.964
    19   6 C    3.976 --    20 C    1.008    52 H    0.972    51 H    0.972
                            18 C    0.967
    20   6 C    3.943 --    21 C    1.408    29 C    1.381    19 C    1.008
    21   6 C    3.949 --    22 C    1.418    20 C    1.408    53 H    0.968
    22   6 C    3.959 --    21 C    1.418    23 C    1.382    54 H    0.963
    23   6 C    3.894 --    22 C    1.382    26 C    1.218    24 O    1.112
    24   8 O    2.256 --    23 C    1.112    25 C    0.975
    25   6 C    3.927 --    57 H    0.977    24 O    0.975    55 H    0.972
                            56 H    0.972
    26   6 C    3.897 --    29 C    1.394    23 C    1.218    27 O    1.105
    27   8 O    2.255 --    26 C    1.105    28 C    0.978
    28   6 C    3.931 --    27 O    0.978    58 H    0.977    59 H    0.973
                            60 H    0.973
    29   6 C    3.958 --    26 C    1.394    20 C    1.381    61 H    0.962
    30   6 C    3.957 --    17 N    0.998    64 H    0.978    62 H    0.969
                            63 H    0.958
    31   6 C    3.974 --    33 C    1.009    32 C    1.008    65 H    0.959
                             3 C    0.946
    32   6 C    3.979 --    31 C    1.008    67 H    0.982    68 H    0.981
                            66 H    0.974
    33   6 C    3.982 --    31 C    1.009    70 H    0.983    71 H    0.980
                            69 H    0.977
    34   1 H    0.990 --     5 C    0.954
    35   1 H    0.997 --     8 C    0.973
    36   1 H    0.993 --     8 C    0.977
    37   1 H    0.993 --     8 C    0.974
    38   1 H    0.993 --    11 C    0.970
    39   1 H    0.991 --    11 C    0.976
    40   1 H    0.990 --    11 C    0.972
    41   1 H    0.951 --     6 C    0.900
    42   1 H    0.985 --    13 C    0.952
    43   1 H    0.995 --    14 C    0.970
    44   1 H    0.995 --    14 C    0.971
    45   1 H    0.995 --    15 C    0.960
    46   1 H    0.970 --    15 C    0.927
    47   1 H    0.987 --     2 C    0.895
    48   1 H    0.995 --    16 C    0.957
    49   1 H    0.991 --    18 C    0.964
    50   1 H    0.994 --    18 C    0.968
    51   1 H    0.996 --    19 C    0.972
    52   1 H    0.996 --    19 C    0.972
    53   1 H    0.997 --    21 C    0.968
    54   1 H    0.995 --    22 C    0.963
    55   1 H    0.991 --    25 C    0.972
    56   1 H    0.991 --    25 C    0.972
    57   1 H    0.992 --    25 C    0.977
    58   1 H    0.992 --    28 C    0.977
    59   1 H    0.993 --    28 C    0.973
    60   1 H    0.993 --    28 C    0.973
    61   1 H    0.996 --    29 C    0.962
    62   1 H    0.986 --    30 C    0.969
    63   1 H    0.986 --    30 C    0.958
    64   1 H    0.993 --    30 C    0.978
    65   1 H    0.992 --    31 C    0.959
    66   1 H    0.991 --    32 C    0.974
    67   1 H    0.997 --    32 C    0.982
    68   1 H    0.994 --    32 C    0.981
    69   1 H    0.993 --    33 C    0.977
    70   1 H    0.997 --    33 C    0.983
    71   1 H    0.994 --    33 C    0.980
    72   1 H    0.970 --     1 N    0.941
 ---------------------------------------------------------------------------

molecular dipole:
                 x           y           z       tot (Debye)
 q only:        1.159      -0.331      -0.703
   full:        1.387      -0.397      -0.986       4.441

           -------------------------------------------------
          | TOTAL ENERGY              -99.293267122804 Eh   |
          | GRADIENT NORM               0.003297484669 Eh/α |
          | HOMO-LUMO GAP               0.859996756444 eV   |
           -------------------------------------------------

 * finished run on 2024/04/06 at 11:16:10.196
