   * xtb version 6.6.1 (8d0f1dd) compiled by 'conda@1efc2f54142f' on 2023-08-01
          program call               : xtb struc.xyz --opt loose --input .xc1 --gfn2

   ID    Z sym.   atoms
    1    6 C      1, 3, 5-7, 10, 11, 14
    2    7 N      2, 4, 9, 13
    3    8 O      8, 12
    4    1 H      15-25
constraining bond 8 15 to    5.6333300 Å, actual value:    3.6386098 Å

          :  Hamiltonian                  GFN2-xTB          :
 * total energy  :   -49.3497528 Eh     change       -0.6633627E-10 Eh
 * total energy  :   -55.6034414 Eh     change       -0.6253689E+01 Eh
 * total energy  :   -63.7787244 Eh     change       -0.8175283E+01 Eh
 * total energy  :   -73.9184711 Eh     change       -0.1013975E+02 Eh
 * total energy  :   -85.8708577 Eh     change       -0.1195239E+02 Eh
 * total energy  :   -66.5929362 Eh     change        0.1927792E+02 Eh
 * total energy  :   -82.6726816 Eh     change       -0.1607975E+02 Eh
 * total energy  :   -83.2275882 Eh     change       -0.5549066E+00 Eh
 * total energy  :   -86.0556272 Eh     change       -0.2828039E+01 Eh
 * total energy  :   -78.6601839 Eh     change        0.7395443E+01 Eh
 * total energy  :   -89.1598821 Eh     change       -0.2392854E-04 Eh
 * total energy  :   -89.1599022 Eh     change       -0.2002833E-04 Eh
 * total energy  :   -89.1599211 Eh     change       -0.1895813E-04 Eh
 * total energy  :   -89.1599328 Eh     change       -0.1169321E-04 Eh
 * total energy  :   -89.1599461 Eh     change       -0.1326342E-04 Eh
 * total energy  :   -89.1599584 Eh     change       -0.1226612E-04 Eh
 * total energy  :   -89.1582861 Eh     change        0.1672214E-02 Eh
 * total energy  :   -89.1599643 Eh     change       -0.1678177E-02 Eh
 * total energy  :   -89.1599683 Eh     change       -0.4018238E-05 Eh
   *** GEOMETRY OPTIMIZATION CONVERGED AFTER 124 ITERATIONS ***

 final structure:
================
25
 xtb: 6.6.1 (8d0f1dd)
C            3.22623593270009        0.96449439299373        0.08294428559645
N            2.32231834948889       -0.00719567554844        0.04357230689993
C            2.55456641674094       -1.35297032286735        0.01252606893715
N            1.35625256797296       -2.02252138188156       -0.03275403946084
C            0.35906385605068       -1.14074876882863       -0.02986472881108
C            0.92565820783054        0.15900292869565        0.02009218282533
C            0.09929893184326        1.24901997647778        0.03734579067060
O            2.84830771342091        2.26487471898713        0.11318698953396
N           -1.24308508206132        1.03598727312087       -0.00138834059505
C           -2.15097647279100        2.16674051885127        0.04367031454233
C           -1.84665041130253       -0.22482312043515       -0.04487646895005
O           -3.03818606943932       -0.35643594135216       -0.06968819380685
N           -0.98683843850505       -1.32614308074148       -0.06453103553255
C           -1.55274863069742       -2.65912251473951       -0.11696297760272
H            3.06790463053280        2.57273652643975        0.13308223052803
H            4.27123059297548        0.69444943052647        0.09590377458975
H            0.44292534654899        2.26749381793103        0.07953010369397
H            3.51364696111904       -1.81599191926789        0.01686442515280
H           -1.67481051118263        3.04162092675712       -0.39010353987679
H           -3.05162429395918        1.91924326351238       -0.51631638721062
H           -2.44021023437041        2.38040881116711        1.07413889931815
H           -1.26904700725927       -3.22793223779613        0.76922812098382
H           -1.21839953211052       -3.17771968558530       -1.01611891002064
H           -2.63649663604267       -2.55845624278303       -0.14444629016414
H            1.28209532659613       -3.02777315203075       -0.06386296334104

          :  Hamiltonian                  GFN2-xTB          :
         :: total energy             -89.159968340653 Eh    ::
         :: gradient norm              0.000753755854 Eh/a0 ::
         :: HOMO-LUMO gap              1.078936055819 eV    ::
         :: SCC energy               -42.741393881980 Eh    ::
         :: -> dispersion             -0.022604507616 Eh    ::
         :: repulsion energy           2.882293952134 Eh    ::

    * Orbital Energies and Occupations

         #    Occupation            Energy/Eh            Energy/eV
      -------------------------------------------------------------
         1        2.0000           -0.9003676             -24.5002
       ...           ...                  ...                  ...
        25        2.0000           -0.6611419             -17.9906
        26        2.0000           -0.6600721             -17.9615
        27        2.0000           -0.6416946             -17.4614
        28        2.0000           -0.6406261             -17.4323
        29        2.0000           -0.6376329             -17.3509
        30        2.0000           -0.6174285             -16.8011
        31        2.0000           -0.6151926             -16.7402
        32        2.0000           -0.6115087             -16.6400
        33        2.0000           -0.6081184             -16.5477
        34        2.0000           -0.5860867             -15.9482
        35        2.0000           -0.5654451             -15.3865
        36        2.0000           -0.5486200             -14.9287
        37        1.8488           -0.4718114             -12.8386 (HOMO)
        38        0.1511           -0.4321612             -11.7597 (LUMO)
        39        0.0002           -0.3774716             -10.2715
        40        0.0000           -0.3497417              -9.5170
        41                         -0.2853501              -7.7648
        42                         -0.1969102              -5.3582
        43                         -0.1665559              -4.5322
        44                         -0.1280654              -3.4848
        45                         -0.1146111              -3.1187
        46                         -0.0754744              -2.0538
        47                         -0.0632137              -1.7201
        48                         -0.0279196              -0.7597
       ...                                ...                  ...
        67                          6.1052964             166.1336
      -------------------------------------------------------------
                  HL-Gap            0.0396502 Eh            1.0789 eV

     #   Z          covCN         q      C6AA      α(0)
     1   6 C        2.786     0.089    25.998     8.352
     2   7 N        2.793     0.071    20.000     6.642
     3   6 C        3.011    -0.032    28.790     8.802
     4   7 N        2.767    -0.050    22.214     7.000
     5   6 C        3.015     0.098    25.798     8.332
     6   6 C        3.074     0.016    27.584     8.611
     7   6 C        2.853     0.009    27.809     8.643
     8   8 O        1.663    -0.376    20.396     6.097
     9   7 N        2.746    -0.023    21.701     6.919
    10   6 C        3.706    -0.073    22.055     6.713
    11   6 C        2.725     0.314    21.662     7.619
    12   8 O        0.859    -0.371    21.118     6.161
    13   7 N        2.737    -0.056    22.317     7.016
    14   6 C        3.698    -0.071    22.032     6.713
    15   1 H        0.883     0.367     0.542     1.153
    16   1 H        0.926     0.082     1.959     2.189
    17   1 H        0.926     0.112     1.676     2.025
    18   1 H        0.927     0.096     1.821     2.110
    19   1 H        0.925     0.089     1.892     2.151
    20   1 H        0.925     0.114     1.659     2.014
    21   1 H        0.924     0.095     1.831     2.116
    22   1 H        0.924     0.080     1.975     2.197
    23   1 H        0.924     0.080     1.976     2.198
    24   1 H        0.925     0.122     1.594     1.975
    25   1 H        0.860     0.218     1.020     1.582

Wiberg/Mayer (AO) data.
largest (>0.10) Wiberg bond orders for each atom

     #   Z sym  total        # sym  WBO       # sym  WBO       # sym  WBO
 ---------------------------------------------------------------------------
     1   6 C    3.747 --     2 N    1.313     8 O    1.113    16 H    0.949
                             3 C    0.176
     2   7 N    3.713 --     1 C    1.313     3 C    1.188     6 C    1.050
     3   6 C    3.732 --     2 N    1.188     4 N    1.172    18 H    0.963
                             1 C    0.176     5 C    0.134
     4   7 N    3.594 --     5 C    1.299     3 C    1.172    25 H    0.923
     5   6 C    3.909 --     4 N    1.299     6 C    1.189    13 N    1.164
                             3 C    0.134
     6   6 C    3.930 --     7 C    1.454     5 C    1.189     2 N    1.050
     7   6 C    3.854 --     6 C    1.454     9 N    1.230    17 H    0.950
     8   8 O    2.154 --     1 C    1.113    15 H    0.859
     9   7 N    3.584 --     7 C    1.230    11 C    1.079    10 C    0.980
                            12 O    0.123
    10   6 C    3.928 --     9 N    0.980    19 H    0.975    20 H    0.966
                            21 H    0.963
    11   6 C    3.958 --    12 O    1.705     9 N    1.079    13 N    1.078
    12   8 O    2.066 --    11 C    1.705    13 N    0.139     9 N    0.123
    13   7 N    3.537 --     5 C    1.164    11 C    1.078    14 C    0.978
                            12 O    0.139
    14   6 C    3.931 --    13 N    0.978    23 H    0.971    22 H    0.971
                            24 H    0.966
    15   1 H    0.865 --     8 O    0.859
    16   1 H    0.992 --     1 C    0.949
    17   1 H    0.986 --     7 C    0.950
    18   1 H    0.990 --     3 C    0.963
    19   1 H    0.990 --    10 C    0.975
    20   1 H    0.984 --    10 C    0.966
    21   1 H    0.983 --    10 C    0.963
    22   1 H    0.990 --    14 C    0.971
    23   1 H    0.990 --    14 C    0.971
    24   1 H    0.985 --    14 C    0.966
    25   1 H    0.952 --     4 N    0.923
 ---------------------------------------------------------------------------

molecular dipole:
                 x           y           z       tot (Debye)
 q only:        2.025      -0.506       0.022
   full:        2.540      -0.485       0.051       6.574

           -------------------------------------------------
          | TOTAL ENERGY              -89.159968340653 Eh   |
          | GRADIENT NORM               0.000753755854 Eh/α |
          | HOMO-LUMO GAP               1.078936055819 eV   |
           -------------------------------------------------

 * finished run on 2024/06/05 at 19:58:16.669
