   * xtb version 6.6.1 (8d0f1dd) compiled by 'conda@1efc2f54142f' on 2023-08-01
          program call               : xtb xtbopt.xyz --opt crude --input .xc2 --gfn2

   ID    Z sym.   atoms
    1    6 C      1, 3, 5-7, 10, 11, 14
    2    7 N      2, 4, 9, 13
    3    8 O      8, 12
    4    1 H      15-25
########################################################################
[WARNING] Please study the warnings concerning your input carefully
-1- readin_getIntValue: could not parse ''
########################################################################

          :  Hamiltonian                  GFN2-xTB          :
 * total energy  :   -39.8589984 Eh     change       -0.2472689E-11 Eh
 * total energy  :   -42.1453492 Eh     change       -0.2286351E+01 Eh
 * total energy  :   -42.1746252 Eh     change       -0.2927598E-01 Eh
 * total energy  :   -42.1772245 Eh     change       -0.2599341E-02 Eh
 * total energy  :   -42.1782256 Eh     change       -0.1001036E-02 Eh
 * total energy  :   -42.1786626 Eh     change       -0.4369946E-03 Eh
 * total energy  :   -42.1795288 Eh     change       -0.8662338E-03 Eh
 * total energy  :   -42.1804228 Eh     change       -0.8939909E-03 Eh
 * total energy  :   -42.1813710 Eh     change       -0.9482523E-03 Eh
 * total energy  :   -42.1819059 Eh     change       -0.5348381E-03 Eh
 * total energy  :   -42.1821597 Eh     change       -0.2538236E-03 Eh
 * total energy  :   -42.1822739 Eh     change       -0.1141681E-03 Eh
 * total energy  :   -42.1823794 Eh     change       -0.1054976E-03 Eh
 * total energy  :   -42.1825212 Eh     change       -0.1418313E-03 Eh
 * total energy  :   -42.1826669 Eh     change       -0.1456644E-03 Eh
   *** GEOMETRY OPTIMIZATION CONVERGED AFTER 15 ITERATIONS ***

 final structure:
================
25
 xtb: 6.6.1 (8d0f1dd)
C            3.20035501214912        0.95215921018389        0.09633016463522
N            2.30166237658287       -0.01769258645306        0.04835589815201
C            2.53503859785620       -1.36520515283624        0.00844663672883
N            1.33492110735994       -2.03223209707740       -0.04266152143219
C            0.34017298039317       -1.14723456617796       -0.03478135171615
C            0.90760935849423        0.15045660300922        0.02349045848611
C            0.08007502887868        1.23824815142223        0.04173104247724
O            2.77782179961083        2.23253399189535        0.13299096609168
N           -1.26331726331896        1.02077003747286       -0.00424335834105
C           -2.16346925430833        2.15870289282267        0.03699658014980
C           -1.86734535995857       -0.23976275770004       -0.05109020664120
O           -3.05831519786814       -0.37723061723518       -0.07808197451559
N           -1.00459049298993       -1.33842518354227       -0.07097676922628
C           -1.55765307126648       -2.67611212887590       -0.12352762861999
H            3.50167678498898        2.86079513853967        0.18420990190641
H            4.24591899604613        0.69243958320192        0.10897914592367
H            0.41749161925221        2.25917071569184        0.08933654099724
H            3.49840818396094       -1.81889776334352        0.01170374100140
H           -1.74194256941961        2.98628276381359       -0.52955598494678
H           -3.11898172478258        1.86348766906951       -0.39531726017313
H           -2.33438275182792        2.47218842819036        1.06940462730898
H           -1.26038775208498       -3.24394603826944        0.75890240755696
H           -1.22454384049917       -3.18818805388511       -1.02711976457064
H           -2.64260227956854       -2.58719916794108       -0.14243749652420
H            1.25681122641930       -3.03687053037299       -0.07991317680842

          :  Hamiltonian                  GFN2-xTB          :
         :: total energy             -42.182666855515 Eh    ::
         :: gradient norm              0.009881139471 Eh/a0 ::
         :: HOMO-LUMO gap              1.091577612237 eV    ::
         :: SCC energy               -42.708990627249 Eh    ::
         :: -> dispersion             -0.022594393915 Eh    ::
         :: repulsion energy           0.526229416344 Eh    ::

    * Orbital Energies and Occupations

         #    Occupation            Energy/Eh            Energy/eV
      -------------------------------------------------------------
         1        2.0000           -0.8780408             -23.8927
       ...           ...                  ...                  ...
        25        2.0000           -0.6605019             -17.9732
        26        2.0000           -0.6581609             -17.9095
        27        2.0000           -0.6393468             -17.3975
        28        2.0000           -0.6387972             -17.3826
        29        2.0000           -0.6358129             -17.3013
        30        2.0000           -0.6233196             -16.9614
        31        2.0000           -0.6118474             -16.6492
        32        2.0000           -0.6110421             -16.6273
        33        2.0000           -0.6038980             -16.4329
        34        2.0000           -0.5830951             -15.8668
        35        2.0000           -0.5624215             -15.3043
        36        2.0000           -0.5453180             -14.8389
        37        1.8528           -0.4684716             -12.7478 (HOMO)
        38        0.1470           -0.4283569             -11.6562 (LUMO)
        39        0.0002           -0.3742773             -10.1846
        40        0.0000           -0.3460498              -9.4165
        41                         -0.2815085              -7.6602
        42                         -0.1930827              -5.2540
        43                         -0.1653763              -4.5001
        44                         -0.1249672              -3.4005
        45                         -0.1127490              -3.0681
        46                         -0.0959907              -2.6120
        47                         -0.0592907              -1.6134
        48                         -0.0260370              -0.7085
       ...                                ...                  ...
        67                          0.5497997              14.9608
      -------------------------------------------------------------
                  HL-Gap            0.0401147 Eh            1.0916 eV

     #   Z          covCN         q      C6AA      α(0)
     1   6 C        2.715     0.100    25.769     8.310
     2   7 N        2.795     0.073    19.975     6.638
     3   6 C        3.010    -0.035    28.850     8.811
     4   7 N        2.767    -0.052    22.244     7.005
     5   6 C        3.018     0.098    25.817     8.335
     6   6 C        3.074     0.019    27.498     8.598
     7   6 C        2.854     0.011    27.765     8.636
     8   8 O        1.660    -0.345    19.811     6.009
     9   7 N        2.746    -0.026    21.749     6.926
    10   6 C        3.706    -0.074    22.070     6.716
    11   6 C        2.723     0.315    21.652     7.618
    12   8 O        0.859    -0.374    21.164     6.168
    13   7 N        2.737    -0.057    22.342     7.020
    14   6 C        3.698    -0.070    22.011     6.710
    15   1 H        0.805     0.343     0.605     1.222
    16   1 H        0.926     0.073     2.058     2.243
    17   1 H        0.926     0.117     1.642     2.004
    18   1 H        0.927     0.093     1.853     2.129
    19   1 H        0.925     0.088     1.896     2.153
    20   1 H        0.925     0.116     1.648     2.007
    21   1 H        0.924     0.092     1.860     2.133
    22   1 H        0.924     0.079     1.986     2.204
    23   1 H        0.924     0.079     1.984     2.203
    24   1 H        0.925     0.122     1.601     1.979
    25   1 H        0.860     0.216     1.027     1.587

Wiberg/Mayer (AO) data.
largest (>0.10) Wiberg bond orders for each atom

     #   Z sym  total        # sym  WBO       # sym  WBO       # sym  WBO
 ---------------------------------------------------------------------------
     1   6 C    3.763 --     2 N    1.322     8 O    1.115    16 H    0.956
                             3 C    0.175
     2   7 N    3.713 --     1 C    1.322     3 C    1.181     6 C    1.050
     3   6 C    3.727 --     2 N    1.181     4 N    1.170    18 H    0.964
                             1 C    0.175     5 C    0.137
     4   7 N    3.593 --     5 C    1.299     3 C    1.170    25 H    0.924
     5   6 C    3.910 --     4 N    1.299     6 C    1.189    13 N    1.163
                             3 C    0.137
     6   6 C    3.931 --     7 C    1.456     5 C    1.189     2 N    1.050
     7   6 C    3.855 --     6 C    1.456     9 N    1.226    17 H    0.949
     8   8 O    2.153 --     1 C    1.115    15 H    0.867
     9   7 N    3.582 --     7 C    1.226    11 C    1.081    10 C    0.980
                            12 O    0.124
    10   6 C    3.928 --     9 N    0.980    19 H    0.974    20 H    0.967
                            21 H    0.964
    11   6 C    3.959 --    12 O    1.703     9 N    1.081    13 N    1.078
    12   8 O    2.064 --    11 C    1.703    13 N    0.138     9 N    0.124
    13   7 N    3.536 --     5 C    1.163    11 C    1.078    14 C    0.978
                            12 O    0.138
    14   6 C    3.932 --    13 N    0.978    22 H    0.971    23 H    0.971
                            24 H    0.966
    15   1 H    0.882 --     8 O    0.867
    16   1 H    0.994 --     1 C    0.956
    17   1 H    0.985 --     7 C    0.949
    18   1 H    0.991 --     3 C    0.964
    19   1 H    0.989 --    10 C    0.974
    20   1 H    0.985 --    10 C    0.967
    21   1 H    0.984 --    10 C    0.964
    22   1 H    0.991 --    14 C    0.971
    23   1 H    0.991 --    14 C    0.971
    24   1 H    0.985 --    14 C    0.966
    25   1 H    0.952 --     4 N    0.924
 ---------------------------------------------------------------------------

molecular dipole:
                 x           y           z       tot (Debye)
 q only:        2.347      -0.237       0.042
   full:        2.930      -0.327       0.068       7.496

           -------------------------------------------------
          | TOTAL ENERGY              -42.182666855515 Eh   |
          | GRADIENT NORM               0.009881139471 Eh/α |
          | HOMO-LUMO GAP               1.091577612237 eV   |
           -------------------------------------------------

 * finished run on 2024/06/05 at 19:58:17.231
