   * xtb version 6.6.1 (8d0f1dd) compiled by 'conda@1efc2f54142f' on 2023-08-01
          program call               : xtb struc.xyz --opt loose --input .xc1 --gfn2

   ID    Z sym.   atoms
    1    6 C      1, 3, 5-7, 10, 11, 14
    2    7 N      2, 4, 9, 13
    3    8 O      8, 12
    4    1 H      15-25
constraining bond 7 22 to    5.7133300 Å, actual value:    4.8444332 Å

          :  Hamiltonian                  GFN2-xTB          :
 * total energy  :   -43.5959025 Eh     change       -0.6650680E-10 Eh
 * total energy  :   -46.6637239 Eh     change       -0.3067821E+01 Eh
 * total energy  :   -51.5034685 Eh     change       -0.4839745E+01 Eh
 * total energy  :   -58.2386875 Eh     change       -0.6735219E+01 Eh
 * total energy  :   -66.9416120 Eh     change       -0.8702924E+01 Eh
 * total energy  :   -77.5423360 Eh     change       -0.1060072E+02 Eh
 * total energy  :   -88.8316522 Eh     change       -0.1128932E+02 Eh
 * total energy  :   -76.0188091 Eh     change        0.1281284E+02 Eh
 * total energy  :   -84.0379651 Eh     change       -0.8019156E+01 Eh
 * total energy  :   -84.8503059 Eh     change       -0.8123408E+00 Eh
 * total energy  :   -90.6265422 Eh     change       -0.1563743E-02 Eh
 * total energy  :   -90.6272312 Eh     change       -0.6889959E-03 Eh
 * total energy  :   -90.6280371 Eh     change       -0.8058535E-03 Eh
 * total energy  :   -90.6285863 Eh     change       -0.5492717E-03 Eh
 * total energy  :   -90.6287306 Eh     change       -0.1443101E-03 Eh
 * total energy  :   -90.6288811 Eh     change       -0.1504817E-03 Eh
 * total energy  :   -90.6289446 Eh     change       -0.6348182E-04 Eh
 * total energy  :   -90.6289980 Eh     change       -0.5342802E-04 Eh
 * total energy  :   -90.6290283 Eh     change       -0.3027269E-04 Eh
   *** GEOMETRY OPTIMIZATION CONVERGED AFTER 55 ITERATIONS ***

 final structure:
================
25
 xtb: 6.6.1 (8d0f1dd)
C            3.82996580949058        0.90293099820618        0.15512432927555
N            2.73803074580736       -0.02165759582404        0.01425589078146
C            2.80270648407505       -1.30695190262100       -0.31476794326649
N            1.57874098461006       -1.83347428604566       -0.35112965017760
C            0.66148832253376       -0.86212769809588       -0.00414639396539
C            1.38747214766042        0.35285030525779        0.23176983047857
C           -1.35699233903300        0.04140463240863        0.89145926110238
O            1.02138394778211        1.47457163688521        0.51230931597824
N           -2.52258183781793        0.62373456421668        0.15194549149801
C           -2.77192376014183        1.86211885164897       -0.52336616151979
C           -2.92141177921555       -0.20601097779369        1.05987372273462
O           -3.72846667581027       -0.85162732331795        1.62020371586413
N           -0.69142993981869       -1.02917417161764        0.04551600803030
C           -1.34598627878463       -2.01701818572260       -0.51263968965785
H            4.37340852066011        0.71667130075180        1.08284761020056
H            4.51463481499611        0.81771431821408       -0.68715044205066
H            3.40593880960180        1.90651597556740        0.19099292562208
H            3.70636759030833       -1.84719393835356       -0.52407023522279
H           -1.81610765636017        2.35160003828652       -0.70325172279553
H           -3.26958500034159        1.66403953521049       -1.47380294872635
H           -3.40359211583631        2.50911482840801        0.08663115107545
H           -1.15438099157287        0.21238845002415        1.12389135281211
H           -0.84291619473280       -2.74006112967527       -1.12653784640166
H           -2.40639065573493       -2.10005530910656       -0.36984617252491
H            1.37205856177634       -2.80206437531041       -0.54493978124404

          :  Hamiltonian                  GFN2-xTB          :
         :: total energy             -90.629028301155 Eh    ::
         :: gradient norm              0.003884096311 Eh/a0 ::
         :: HOMO-LUMO gap              2.063785029335 eV    ::
         :: SCC energy               -42.671878288181 Eh    ::
         :: -> dispersion             -0.021083902650 Eh    ::
         :: repulsion energy           3.354796601781 Eh    ::

    * Orbital Energies and Occupations

         #    Occupation            Energy/Eh            Energy/eV
      -------------------------------------------------------------
         1        2.0000           -0.8947763             -24.3481
       ...           ...                  ...                  ...
        25        2.0000           -0.6747284             -18.3603
        26        2.0000           -0.6636122             -18.0578
        27        2.0000           -0.6611908             -17.9919
        28        1.9999           -0.6535969             -17.7853
        29        1.9999           -0.6515326             -17.7291
        30        1.9999           -0.6388597             -17.3843
        31        1.9995           -0.6199652             -16.8701
        32        1.9987           -0.6037686             -16.4294
        33        1.9975           -0.5929473             -16.1349
        34        1.9879           -0.5680917             -15.4586
        35        1.9807           -0.5606255             -15.2554
        36        1.9557           -0.5472808             -14.8923
        37        1.8658           -0.5289937             -14.3947 (HOMO)
        38        0.2072           -0.4531510             -12.3309 (LUMO)
        39        0.0064           -0.3964033             -10.7867
        40        0.0010           -0.3671653              -9.9911
        41        0.0001           -0.3231646              -8.7938
        42        0.0000           -0.2596612              -7.0657
        43        0.0000           -0.2279903              -6.2039
        44                         -0.1792517              -4.8777
        45                         -0.1536065              -4.1798
        46                         -0.1468781              -3.9968
        47                         -0.0984718              -2.6796
        48                         -0.0647759              -1.7626
       ...                                ...                  ...
        67                         17.6130485             479.2754
      -------------------------------------------------------------
                  HL-Gap            0.0758427 Eh            2.0638 eV

     #   Z          covCN         q      C6AA      α(0)
     1   6 C        3.690    -0.076    22.151     6.735
     2   7 N        2.829     0.002    21.223     6.842
     3   6 C        2.975     0.066    26.515     8.447
     4   7 N        2.768    -0.061    22.417     7.032
     5   6 C        3.025     0.022    27.478     8.598
     6   6 C        2.876     0.240    22.998     7.861
     7   6 C        3.726    -0.029    21.198     6.574
     8   8 O        0.856    -0.392    21.514     6.219
     9   7 N        2.726    -0.074    22.685     7.074
    10   6 C        3.682    -0.060    21.879     6.698
    11   6 C        2.734     0.303    21.860     7.655
    12   8 O        0.856    -0.273    19.307     5.891
    13   7 N        2.729     0.052    20.332     6.697
    14   6 C        2.791    -0.057    29.401     8.882
    15   1 H        0.924     0.099     1.791     2.093
    16   1 H        0.925     0.095     1.835     2.118
    17   1 H        0.925     0.122     1.600     1.978
    18   1 H        0.926     0.118     1.632     1.998
    19   1 H        0.925     0.102     1.766     2.078
    20   1 H        0.924     0.098     1.801     2.098
    21   1 H        0.924     0.097     1.811     2.105
    22   1 H        0.939     0.182     1.194     1.709
    23   1 H        0.926     0.095     1.833     2.117
    24   1 H        0.926     0.109     1.709     2.044
    25   1 H        0.860     0.221     1.005     1.571

Wiberg/Mayer (AO) data.
largest (>0.10) Wiberg bond orders for each atom

     #   Z sym  total        # sym  WBO       # sym  WBO       # sym  WBO
 ---------------------------------------------------------------------------
     1   6 C    3.925 --     2 N    0.987    16 H    0.968    17 H    0.966
                            15 H    0.959
     2   7 N    3.636 --     3 C    1.363     6 C    1.030     1 C    0.987
                             8 O    0.120     4 N    0.104
     3   6 C    3.863 --     2 N    1.363     4 N    1.336    18 H    0.952
     4   7 N    3.583 --     3 C    1.336     5 C    1.133    25 H    0.920
                             2 N    0.104
     5   6 C    3.813 --     6 C    1.156    13 N    1.154     4 N    1.133
                            14 C    0.101     8 O    0.101
     6   6 C    3.938 --     8 O    1.627     5 C    1.156     2 N    1.030
     7   6 C    3.730 --    22 H    0.955    13 N    0.920     9 N    0.883
                            11 C    0.736    12 O    0.114
     8   8 O    1.954 --     6 C    1.627     2 N    0.120     5 C    0.101
     9   7 N    3.467 --    11 C    1.303    10 C    0.979     7 C    0.883
                            12 O    0.242
    10   6 C    3.926 --     9 N    0.979    19 H    0.969    21 H    0.962
                            20 H    0.960
    11   6 C    3.937 --    12 O    1.826     9 N    1.303     7 C    0.736
    12   8 O    2.224 --    11 C    1.826     9 N    0.242     7 C    0.114
    13   7 N    3.654 --    14 C    1.480     5 C    1.154     7 C    0.920
    14   6 C    3.721 --    13 N    1.480    23 H    0.963    24 H    0.962
                             5 C    0.101
    15   1 H    0.987 --     1 C    0.959
    16   1 H    0.989 --     1 C    0.968
    17   1 H    0.985 --     1 C    0.966
    18   1 H    0.985 --     3 C    0.952
    19   1 H    0.988 --    10 C    0.969
    20   1 H    0.986 --    10 C    0.960
    21   1 H    0.987 --    10 C    0.962
    22   1 H    0.966 --     7 C    0.955
    23   1 H    0.991 --    14 C    0.963
    24   1 H    0.987 --    14 C    0.962
    25   1 H    0.951 --     4 N    0.920
 ---------------------------------------------------------------------------

molecular dipole:
                 x           y           z       tot (Debye)
 q only:        1.792      -1.401      -0.981
   full:        2.000      -1.829      -1.200       7.532

           -------------------------------------------------
          | TOTAL ENERGY              -90.629028301155 Eh   |
          | GRADIENT NORM               0.003884096311 Eh/α |
          | HOMO-LUMO GAP               2.063785029335 eV   |
           -------------------------------------------------

 * finished run on 2024/06/05 at 19:58:12.214
