   * xtb version 6.6.1 (8d0f1dd) compiled by 'conda@1efc2f54142f' on 2023-08-01
          program call               : xtb xtbopt.xyz --opt crude --input .xc2 --gfn2

   ID    Z sym.   atoms
    1    6 C      1, 3, 5-7, 10, 11, 14
    2    7 N      2, 4, 9, 13
    3    8 O      8, 12
    4    1 H      15-25
########################################################################
[WARNING] Please study the warnings concerning your input carefully
-1- readin_getIntValue: could not parse ''
########################################################################

          :  Hamiltonian                  GFN2-xTB          :
 * total energy  :   -39.3170184 Eh     change       -0.2842171E-13 Eh
 * total energy  :   -42.0982261 Eh     change       -0.2781208E+01 Eh
 * total energy  :   -42.1192104 Eh     change       -0.2098433E-01 Eh
 * total energy  :   -42.1238329 Eh     change       -0.4622561E-02 Eh
 * total energy  :   -42.1253326 Eh     change       -0.1499680E-02 Eh
 * total energy  :   -42.1261644 Eh     change       -0.8317356E-03 Eh
 * total energy  :   -42.1271830 Eh     change       -0.1018646E-02 Eh
 * total energy  :   -42.1280161 Eh     change       -0.8330519E-03 Eh
 * total energy  :   -42.1286239 Eh     change       -0.6078653E-03 Eh
 * total energy  :   -42.1289482 Eh     change       -0.3243181E-03 Eh
   *** GEOMETRY OPTIMIZATION CONVERGED AFTER 10 ITERATIONS ***

 final structure:
================
25
 xtb: 6.6.1 (8d0f1dd)
C            3.78408804955811        0.92509778692844        0.13005274181291
N            2.70264588640260       -0.01366295947023       -0.00306727369108
C            2.77372167083757       -1.29350303334226       -0.35172311943471
N            1.55488632683798       -1.83334543733756       -0.36310641704927
C            0.63496986556813       -0.87812938532875        0.02001096418286
C            1.35514999578007        0.33967497150819        0.25574424113105
C           -1.47124968719087       -0.08904106149645        0.83100372737966
O            0.98623001257470        1.45410483264972        0.56728335742987
N           -2.52547269730349        0.58602048078235        0.10612619044267
C           -2.68748770982819        1.84911923867241       -0.55009207867878
C           -2.97288406231966       -0.23113920023625        1.02341779357997
O           -3.84225053377659       -0.79511747255705        1.58409726289582
N           -0.71730093683274       -1.06720031427054        0.07794266221070
C           -1.34559267103350       -2.05914142610713       -0.50859068966203
H            4.36970233113395        0.71165978548015        1.02540007816793
H            4.43422696855579        0.88907384478869       -0.74262757461927
H            3.34229890407946        1.91741049598379        0.22394685710589
H            3.67751462148142       -1.81920448710837       -0.59535751690900
H           -1.71642996803156        2.34113905711559       -0.59797980708454
H           -3.06497673822522        1.68473141653937       -1.56081868446468
H           -3.39100780011145        2.47639508158452       -0.00375718297048
H           -0.85762278482045        0.45915333017306        1.53102071832750
H           -0.81575605466376       -2.74411397120917       -1.14235797523286
H           -2.40103358202809       -2.18851028289024       -0.36762799922154
H            1.35406210745763       -2.80323274925033       -0.55776865774794

          :  Hamiltonian                  GFN2-xTB          :
         :: total energy             -42.128948244138 Eh    ::
         :: gradient norm              0.007333735954 Eh/a0 ::
         :: HOMO-LUMO gap              2.070429032739 eV    ::
         :: SCC energy               -42.667087683383 Eh    ::
         :: -> dispersion             -0.021145750926 Eh    ::
         :: repulsion energy           0.538057637952 Eh    ::

    * Orbital Energies and Occupations

         #    Occupation            Energy/Eh            Energy/eV
      -------------------------------------------------------------
         1        2.0000           -0.8965794             -24.3972
       ...           ...                  ...                  ...
        25        2.0000           -0.6687664             -18.1981
        26        2.0000           -0.6638468             -18.0642
        27        2.0000           -0.6599118             -17.9571
        28        1.9999           -0.6524957             -17.7553
        29        1.9999           -0.6496972             -17.6792
        30        1.9999           -0.6384378             -17.3728
        31        1.9995           -0.6207190             -16.8906
        32        1.9984           -0.6012704             -16.3614
        33        1.9975           -0.5935571             -16.1515
        34        1.9876           -0.5684634             -15.4687
        35        1.9717           -0.5552454             -15.1090
        36        1.9499           -0.5460112             -14.8577
        37        1.8728           -0.5306206             -14.4389 (HOMO)
        38        0.2152           -0.4545338             -12.3685 (LUMO)
        39        0.0068           -0.3980989             -10.8328
        40        0.0008           -0.3643194              -9.9136
        41        0.0001           -0.3248926              -8.8408
        42                         -0.2169771              -5.9042
        43                         -0.1974708              -5.3735
        44                         -0.1776001              -4.8327
        45                         -0.1391594              -3.7867
        46                         -0.1175942              -3.1999
        47                         -0.0683963              -1.8612
        48                         -0.0517138              -1.4072
       ...                                ...                  ...
        67                          0.7952577              21.6401
      -------------------------------------------------------------
                  HL-Gap            0.0760869 Eh            2.0704 eV

     #   Z          covCN         q      C6AA      α(0)
     1   6 C        3.690    -0.076    22.156     6.736
     2   7 N        2.829     0.003    21.214     6.841
     3   6 C        2.975     0.065    26.531     8.449
     4   7 N        2.770    -0.060    22.398     7.029
     5   6 C        3.023     0.019    27.568     8.613
     6   6 C        2.878     0.240    22.997     7.862
     7   6 C        3.755     0.020    20.286     6.422
     8   8 O        0.856    -0.400    21.681     6.243
     9   7 N        2.727    -0.065    22.506     7.046
    10   6 C        3.682    -0.061    21.895     6.701
    11   6 C        2.742     0.306    21.798     7.644
    12   8 O        0.856    -0.278    19.389     5.904
    13   7 N        2.731     0.088    19.723     6.596
    14   6 C        2.809    -0.060    29.487     8.897
    15   1 H        0.924     0.099     1.791     2.093
    16   1 H        0.925     0.095     1.829     2.115
    17   1 H        0.924     0.122     1.596     1.975
    18   1 H        0.926     0.119     1.625     1.993
    19   1 H        0.925     0.099     1.796     2.096
    20   1 H        0.924     0.097     1.817     2.108
    21   1 H        0.925     0.097     1.813     2.106
    22   1 H        0.926     0.104     1.746     2.066
    23   1 H        0.926     0.095     1.834     2.117
    24   1 H        0.926     0.112     1.682     2.028
    25   1 H        0.860     0.221     1.003     1.569

Wiberg/Mayer (AO) data.
largest (>0.10) Wiberg bond orders for each atom

     #   Z sym  total        # sym  WBO       # sym  WBO       # sym  WBO
 ---------------------------------------------------------------------------
     1   6 C    3.924 --     2 N    0.987    16 H    0.968    17 H    0.966
                            15 H    0.960
     2   7 N    3.638 --     3 C    1.361     6 C    1.034     1 C    0.987
                             8 O    0.120     4 N    0.103
     3   6 C    3.862 --     2 N    1.361     4 N    1.336    18 H    0.952
     4   7 N    3.583 --     3 C    1.336     5 C    1.135    25 H    0.919
                             2 N    0.103
     5   6 C    3.815 --     6 C    1.162    13 N    1.146     4 N    1.135
                             8 O    0.102
     6   6 C    3.938 --     8 O    1.616     5 C    1.162     2 N    1.034
     7   6 C    3.810 --    13 N    0.966    22 H    0.948     9 N    0.898
                            11 C    0.794
     8   8 O    1.949 --     6 C    1.616     2 N    0.120     5 C    0.102
     9   7 N    3.441 --    11 C    1.252    10 C    0.980     7 C    0.898
                            12 O    0.239
    10   6 C    3.926 --     9 N    0.980    19 H    0.969    21 H    0.963
                            20 H    0.960
    11   6 C    3.933 --    12 O    1.811     9 N    1.252     7 C    0.794
    12   8 O    2.193 --    11 C    1.811     9 N    0.239
    13   7 N    3.671 --    14 C    1.464     5 C    1.146     7 C    0.966
    14   6 C    3.714 --    13 N    1.464    23 H    0.966    24 H    0.963
    15   1 H    0.987 --     1 C    0.960
    16   1 H    0.988 --     1 C    0.968
    17   1 H    0.985 --     1 C    0.966
    18   1 H    0.985 --     3 C    0.952
    19   1 H    0.988 --    10 C    0.969
    20   1 H    0.985 --    10 C    0.960
    21   1 H    0.986 --    10 C    0.963
    22   1 H    0.987 --     7 C    0.948
    23   1 H    0.991 --    14 C    0.966
    24   1 H    0.987 --    14 C    0.963
    25   1 H    0.951 --     4 N    0.919
 ---------------------------------------------------------------------------

molecular dipole:
                 x           y           z       tot (Debye)
 q only:        1.882      -1.518      -1.053
   full:        2.168      -1.870      -1.228       7.918

           -------------------------------------------------
          | TOTAL ENERGY              -42.128948244138 Eh   |
          | GRADIENT NORM               0.007333735954 Eh/α |
          | HOMO-LUMO GAP               2.070429032739 eV   |
           -------------------------------------------------

 * finished run on 2024/06/05 at 19:58:12.612
