   * xtb version 6.6.1 (8d0f1dd) compiled by 'conda@1efc2f54142f' on 2023-08-01
          program call               : xtb struc.xyz --opt loose --input .xc1 --gfn2

   ID    Z sym.   atoms
    1    6 C      1, 3, 5-7, 10, 11, 14
    2    7 N      2, 4, 9, 13
    3    8 O      8, 12
    4    1 H      15-25
constraining bond 3 5 to    5.0000000 Å, actual value:    2.1957592 Å

          :  Hamiltonian                  GFN2-xTB          :
 * total energy  :   -14.1658434 Eh     change       -0.6650680E-10 Eh
 * total energy  :   -25.0470893 Eh     change       -0.1088125E+02 Eh
 * total energy  :   -31.6146048 Eh     change       -0.6567516E+01 Eh
 * total energy  :   -36.4323362 Eh     change       -0.4817731E+01 Eh
 * total energy  :   -39.7895596 Eh     change       -0.3357223E+01 Eh
 * total energy  :   -41.0269700 Eh     change       -0.1237410E+01 Eh
 * total energy  :   -41.2217944 Eh     change       -0.1948244E+00 Eh
 * total energy  :   -41.3036040 Eh     change       -0.8180958E-01 Eh
 * total energy  :   -41.3836844 Eh     change       -0.8008038E-01 Eh
 * total energy  :   -41.4321490 Eh     change       -0.4846462E-01 Eh
 * total energy  :   -41.9702263 Eh     change       -0.3209168E-03 Eh
 * total energy  :   -41.9702899 Eh     change       -0.6363969E-04 Eh
 * total energy  :   -41.9704364 Eh     change       -0.1464986E-03 Eh
 * total energy  :   -41.9705076 Eh     change       -0.7115791E-04 Eh
 * total energy  :   -41.9706223 Eh     change       -0.1147468E-03 Eh
 * total energy  :   -41.9707010 Eh     change       -0.7874443E-04 Eh
 * total energy  :   -41.9707220 Eh     change       -0.2100075E-04 Eh
 * total energy  :   -41.9708065 Eh     change       -0.8443050E-04 Eh
 * total energy  :   -41.9708471 Eh     change       -0.4066157E-04 Eh
   *** GEOMETRY OPTIMIZATION CONVERGED AFTER 82 ITERATIONS ***

 final structure:
================
25
 xtb: 6.6.1 (8d0f1dd)
C            2.73949633426483        1.64597824371332        0.35754166957651
N            1.83888311691991        0.79847124829497        0.50501338381379
C            5.15366698756550       -1.58674036026737       -0.48752567540693
N            1.15506626049989       -1.80718364983109        0.12521008247728
C            0.23332498638675       -0.93156746113543        0.11407259766468
C            0.62663898109557        0.46027417923981        0.23778354557009
C           -0.37733851330833        1.55317877813408        0.17174022420708
O           -0.03798655182024        2.71400812896395        0.19062745379599
N           -1.67689408119525        1.13191736629540        0.06744037897800
C           -2.72804709160440        2.13494942620479        0.00766769675223
C           -2.10096403024999       -0.18951735111404       -0.01729690982004
O           -3.26928893188999       -0.45798964197520       -0.10672739495318
N           -1.12126762636041       -1.17506630245811       -0.00541254869104
C           -1.57212133934370       -2.55216714440088       -0.11675172973552
H            3.45959055317517        1.78997488260382        1.15374769182044
H            6.01189361527880       -0.94284232053888       -0.51631211231591
H            2.88411997850920        2.20113961454470       -0.56725794709485
H            5.09042089774023       -2.63804151459759       -0.68474438676263
H           -2.27289473979021        3.11666297030558        0.11557878497914
H           -3.25442186915005        2.06555278227593       -0.94509319488009
H           -3.44790774229695        1.95753622473549        0.80735221991677
H           -1.27925527870884       -3.11984319207034        0.76808328122148
H           -1.15371051973545       -3.01660009049483       -1.01121226736743
H           -2.65803004853372       -2.54726022118559       -0.19254010315637
H            0.91745816665190       -2.78658605364519        0.06018687730964

          :  Hamiltonian                  GFN2-xTB          :
         :: total energy             -41.970847141445 Eh    ::
         :: gradient norm              0.003295769303 Eh/a0 ::
         :: HOMO-LUMO gap              0.584717010267 eV    ::
         :: SCC energy               -42.506570097985 Eh    ::
         :: -> dispersion             -0.020393447923 Eh    ::
         :: repulsion energy           0.535651777384 Eh    ::

    * Orbital Energies and Occupations

         #    Occupation            Energy/Eh            Energy/eV
      -------------------------------------------------------------
         1        2.0000           -0.8833459             -24.0371
       ...           ...                  ...                  ...
        25        1.9994           -0.6450808             -17.5535
        26        1.9992           -0.6407340             -17.4353
        27        1.9989           -0.6369901             -17.3334
        28        1.9986           -0.6328860             -17.2217
        29        1.9968           -0.6195683             -16.8593
        30        1.9945           -0.6110297             -16.6270
        31        1.9924           -0.6058315             -16.4855
        32        1.9722           -0.5850459             -15.9199
        33        1.9575           -0.5782108             -15.7339
        34        1.9473           -0.5747261             -15.6391
        35        1.8978           -0.5638371             -15.3428
        36        1.8464           -0.5569466             -15.1553
        37        1.2269           -0.5248856             -14.2829 (HOMO)
        38        0.5800           -0.5033976             -13.6981 (LUMO)
        39        0.5742           -0.5031707             -13.6920
        40        0.0174           -0.4426178             -12.0442
        41        0.0006           -0.3887285             -10.5778
        42        0.0003           -0.3753573             -10.2140
        43        0.0000           -0.2888997              -7.8614
        44                         -0.1860997              -5.0640
        45                         -0.1255261              -3.4157
        46                         -0.1051643              -2.8617
        47                         -0.0589079              -1.6030
        48                         -0.0398616              -1.0847
       ...                                ...                  ...
        67                          0.6336507              17.2425
      -------------------------------------------------------------
                  HL-Gap            0.0214880 Eh            0.5847 eV

     #   Z          covCN         q      C6AA      α(0)
     1   6 C        2.772     0.027    27.381     8.570
     2   7 N        1.838     0.051    21.021     6.795
     3   6 C        1.853    -0.088    33.567     9.359
     4   7 N        1.791    -0.278    28.052     7.845
     5   6 C        2.825     0.170    24.327     8.082
     6   6 C        2.908     0.046    26.968     8.515
     7   6 C        2.774     0.272    22.414     7.754
     8   8 O        0.858    -0.342    20.559     6.079
     9   7 N        2.739    -0.066    22.517     7.048
    10   6 C        3.707    -0.061    21.826     6.678
    11   6 C        2.717     0.323    21.506     7.591
    12   8 O        0.860    -0.343    20.574     6.081
    13   7 N        2.741    -0.073    22.648     7.068
    14   6 C        3.703    -0.063    21.876     6.687
    15   1 H        0.925     0.155     1.361     1.824
    16   1 H        0.926     0.142     1.446     1.880
    17   1 H        0.925     0.152     1.382     1.838
    18   1 H        0.926     0.146     1.417     1.862
    19   1 H        0.925     0.115     1.656     2.012
    20   1 H        0.924     0.108     1.716     2.048
    21   1 H        0.924     0.110     1.693     2.035
    22   1 H        0.924     0.090     1.879     2.144
    23   1 H        0.924     0.089     1.886     2.148
    24   1 H        0.925     0.121     1.602     1.979
    25   1 H        0.860     0.198     1.118     1.656

Wiberg/Mayer (AO) data.
largest (>0.10) Wiberg bond orders for each atom

     #   Z sym  total        # sym  WBO       # sym  WBO       # sym  WBO
 ---------------------------------------------------------------------------
     1   6 C    3.812 --     2 N    1.829    15 H    0.921    17 H    0.899
     2   7 N    3.416 --     1 C    1.829     6 C    1.492
     3   6 C    1.891 --    16 H    0.945    18 H    0.945
     4   7 N    2.827 --     5 C    1.671    25 H    0.921    13 N    0.116
     5   6 C    3.946 --     4 N    1.671    13 N    1.116     6 C    1.065
     6   6 C    3.749 --     2 N    1.492     5 C    1.065     7 C    0.972
     7   6 C    3.922 --     8 O    1.686     9 N    1.153     6 C    0.972
     8   8 O    1.994 --     7 C    1.686     9 N    0.141
     9   7 N    3.524 --     7 C    1.153    11 C    1.081    10 C    0.970
                             8 O    0.141    12 O    0.105
    10   6 C    3.886 --     9 N    0.970    19 H    0.966    20 H    0.953
                            21 H    0.953
    11   6 C    3.950 --    12 O    1.691    13 N    1.095     9 N    1.081
    12   8 O    2.010 --    11 C    1.691    13 N    0.116     9 N    0.105
    13   7 N    3.488 --     5 C    1.116    11 C    1.095    14 C    0.978
                            12 O    0.116     4 N    0.116
    14   6 C    3.910 --    13 N    0.978    24 H    0.962    23 H    0.961
                            22 H    0.961
    15   1 H    0.958 --     1 C    0.921
    16   1 H    0.951 --     3 C    0.945
    17   1 H    0.940 --     1 C    0.899
    18   1 H    0.951 --     3 C    0.945
    19   1 H    0.983 --    10 C    0.966
    20   1 H    0.971 --    10 C    0.953
    21   1 H    0.971 --    10 C    0.953
    22   1 H    0.980 --    14 C    0.961
    23   1 H    0.980 --    14 C    0.961
    24   1 H    0.982 --    14 C    0.962
    25   1 H    0.952 --     4 N    0.921
 ---------------------------------------------------------------------------

molecular dipole:
                 x           y           z       tot (Debye)
 q only:        2.818      -0.571      -0.046
   full:        2.892      -0.787      -0.162       7.629

           -------------------------------------------------
          | TOTAL ENERGY              -41.970847141445 Eh   |
          | GRADIENT NORM               0.003295769303 Eh/α |
          | HOMO-LUMO GAP               0.584717010267 eV   |
           -------------------------------------------------

 * finished run on 2024/06/05 at 19:59:10.455
