   * xtb version 6.6.1 (8d0f1dd) compiled by 'conda@1efc2f54142f' on 2023-08-01
          program call               : xtb xtbopt.xyz --opt crude --input .xc2 --gfn2

   ID    Z sym.   atoms
    1    6 C      1, 3, 5-7, 10, 11, 14
    2    7 N      2, 4, 9, 13
    3    8 O      8, 12
    4    1 H      15-25

          :  Hamiltonian                  GFN2-xTB          :
 * total energy  :   -42.1363493 Eh     change       -0.9578116E-11 Eh
   *** GEOMETRY OPTIMIZATION CONVERGED AFTER 1 ITERATIONS ***

 final structure:
================
25
 xtb: 6.6.1 (8d0f1dd)
C            3.94607635860517        3.37179444159929        0.12218165026617
N            2.17929336130036       -1.10032973989783       -0.04016185731093
C            2.07168205245211       -2.39351595830167       -0.08247418280438
N            0.76366936339959       -2.80250844334095       -0.09513175661325
C            0.01277439155084       -1.67342122787374       -0.05853064887683
C            0.91936318738034       -0.60478222978288       -0.02363975268289
C            0.44947633910360        0.76067340058106        0.02362027798321
O            1.13563506436063        1.75764657859933        0.05247679392255
N           -0.94594648276164        0.82969917758190        0.03342555378608
C           -1.55801224083132        2.14784851558079        0.08649295023383
C           -1.84815999030795       -0.21961593912085        0.00214018662608
O           -3.03651968153571       -0.03719385510095        0.01762924053133
N           -1.32194593100806       -1.52090839890011       -0.05070257334085
C           -2.23164684886778       -2.64574932055284       -0.09026006149114
H            4.33177903644928        3.73564455128731        1.05573873776508
H            4.51017487634818        3.52590531262100       -0.77872540156392
H            3.00056017728163        2.85814956596147        0.08933476148133
H            2.90068032219431       -3.07225723509324       -0.10408522807568
H           -0.76672377134397        2.89308254224684        0.06259909851822
H           -2.23003178507223        2.27789704339521       -0.76228826432785
H           -2.14447203976780        2.24888648485451        1.00061618884133
H           -2.10067028595177       -3.27283213005713        0.79307189018731
H           -2.06514798265987       -3.23714572853950       -0.99140810914613
H           -3.24781553009892       -2.25212588101648       -0.10114308365778
H            0.43635955385904       -3.75660298513936       -0.12960479233127

          :  Hamiltonian                  GFN2-xTB          :
         :: total energy             -42.136349271219 Eh    ::
         :: gradient norm              0.000747846506 Eh/a0 ::
         :: HOMO-LUMO gap              1.095363835973 eV    ::
         :: SCC energy               -42.661817394800 Eh    ::
         :: -> dispersion             -0.020645548155 Eh    ::
         :: repulsion energy           0.525410954507 Eh    ::

    * Orbital Energies and Occupations

         #    Occupation            Energy/Eh            Energy/eV
      -------------------------------------------------------------
         1        2.0000           -0.8844483             -24.0671
       ...           ...                  ...                  ...
        25        1.9996           -0.6527553             -17.7624
        26        1.9989           -0.6360597             -17.3081
        27        1.9981           -0.6278987             -17.0860
        28        1.9978           -0.6253794             -17.0174
        29        1.9973           -0.6221289             -16.9290
        30        1.9969           -0.6199460             -16.8696
        31        1.9931           -0.6073774             -16.5276
        32        1.9930           -0.6071349             -16.5210
        33        1.9741           -0.5863191             -15.9546
        34        1.9228           -0.5686178             -15.4729
        35        1.9161           -0.5672506             -15.4357
        36        1.8673           -0.5595870             -15.2271
        37        1.7097           -0.5457880             -14.8516 (HOMO)
        38        0.6333           -0.5055341             -13.7563 (LUMO)
        39        0.0021           -0.4089374             -11.1278
        40        0.0006           -0.3897392             -10.6053
        41        0.0001           -0.3600367              -9.7971
        42        0.0000           -0.2791733              -7.5967
        43                         -0.1977092              -5.3799
        44                         -0.1555781              -4.2335
        45                         -0.1307724              -3.5585
        46                         -0.0664950              -1.8094
        47                         -0.0442583              -1.2043
        48                         -0.0294927              -0.8025
       ...                                ...                  ...
        67                          0.5523104              15.0291
      -------------------------------------------------------------
                  HL-Gap            0.0402539 Eh            1.0954 eV

     #   Z          covCN         q      C6AA      α(0)
     1   6 C        2.778    -0.068    29.680     8.923
     2   7 N        1.906    -0.152    25.071     7.424
     3   6 C        3.154     0.105    25.401     8.242
     4   7 N        2.789    -0.080    22.788     7.090
     5   6 C        3.056     0.115    25.418     8.268
     6   6 C        3.203     0.024    26.890     8.448
     7   6 C        2.764     0.277    22.323     7.738
     8   8 O        0.858    -0.344    20.588     6.084
     9   7 N        2.745    -0.076    22.723     7.080
    10   6 C        3.710    -0.061    21.809     6.674
    11   6 C        2.732     0.319    21.580     7.605
    12   8 O        0.860    -0.346    20.626     6.089
    13   7 N        2.737    -0.042    22.059     6.976
    14   6 C        3.697    -0.070    22.019     6.712
    15   1 H        0.926     0.137     1.482     1.904
    16   1 H        0.926     0.137     1.484     1.905
    17   1 H        0.926     0.160     1.323     1.799
    18   1 H        0.926     0.111     1.687     2.031
    19   1 H        0.925     0.114     1.666     2.018
    20   1 H        0.924     0.108     1.718     2.050
    21   1 H        0.924     0.106     1.727     2.055
    22   1 H        0.924     0.092     1.862     2.134
    23   1 H        0.924     0.091     1.871     2.139
    24   1 H        0.925     0.127     1.554     1.950
    25   1 H        0.860     0.216     1.030     1.590

Wiberg/Mayer (AO) data.
largest (>0.10) Wiberg bond orders for each atom

     #   Z sym  total        # sym  WBO       # sym  WBO       # sym  WBO
 ---------------------------------------------------------------------------
     1   6 C    2.924 --    16 H    0.978    15 H    0.978    17 H    0.961
     2   7 N    3.001 --     3 C    1.559     6 C    1.271
     3   6 C    3.847 --     2 N    1.559     4 N    1.212    18 H    0.954
     4   7 N    3.576 --     5 C    1.224     3 C    1.212    25 H    0.924
     5   6 C    3.894 --     6 C    1.275     4 N    1.224    13 N    1.212
     6   6 C    3.833 --     5 C    1.275     2 N    1.271     7 C    1.070
     7   6 C    3.945 --     8 O    1.674     9 N    1.098     6 C    1.070
     8   8 O    1.971 --     7 C    1.674     9 N    0.127
     9   7 N    3.514 --    11 C    1.121     7 C    1.098    10 C    0.976
                             8 O    0.127    12 O    0.123
    10   6 C    3.888 --     9 N    0.976    19 H    0.964    20 H    0.953
                            21 H    0.952
    11   6 C    3.954 --    12 O    1.686     9 N    1.121    13 N    1.054
    12   8 O    1.994 --    11 C    1.686     9 N    0.123    13 N    0.108
    13   7 N    3.496 --     5 C    1.212    11 C    1.054    14 C    0.978
                            12 O    0.108
    14   6 C    3.911 --    13 N    0.978    23 H    0.963    24 H    0.962
                            22 H    0.962
    15   1 H    0.980 --     1 C    0.978
    16   1 H    0.980 --     1 C    0.978
    17   1 H    0.972 --     1 C    0.961
    18   1 H    0.985 --     3 C    0.954
    19   1 H    0.982 --    10 C    0.964
    20   1 H    0.971 --    10 C    0.953
    21   1 H    0.970 --    10 C    0.952
    22   1 H    0.978 --    14 C    0.962
    23   1 H    0.979 --    14 C    0.963
    24   1 H    0.982 --    14 C    0.962
    25   1 H    0.952 --     4 N    0.924
 ---------------------------------------------------------------------------

molecular dipole:
                 x           y           z       tot (Debye)
 q only:        1.726      -0.870      -0.024
   full:        1.541      -1.535      -0.044       5.531

           -------------------------------------------------
          | TOTAL ENERGY              -42.136349271219 Eh   |
          | GRADIENT NORM               0.000747846506 Eh/α |
          | HOMO-LUMO GAP               1.095363835973 eV   |
           -------------------------------------------------

 * finished run on 2024/06/05 at 19:58:55.403
