   * xtb version 6.6.1 (8d0f1dd) compiled by 'conda@1efc2f54142f' on 2023-08-01
          program call               : xtb struc.xyz --opt loose --input .xc1 --gfn2

   ID    Z sym.   atoms
    1    7 N      1, 17
    2    6 C      2-6, 8, 9, 11-16, 18-23, 25, 26, 28-33
    3    8 O      7, 10, 24, 27
    4    1 H      34-72
constraining bond 3 32 to    5.0000000 Å, actual value:    2.5445765 Å

          :  Hamiltonian                  GFN2-xTB          :
 * total energy  :   -98.3276149 Eh     change       -0.4035485E-08 Eh
 * total energy  :   -98.6182741 Eh     change       -0.2906592E+00 Eh
 * total energy  :   -98.7853719 Eh     change       -0.1670979E+00 Eh
 * total energy  :   -98.9021746 Eh     change       -0.1168027E+00 Eh
 * total energy  :   -98.9877937 Eh     change       -0.8561902E-01 Eh
 * total energy  :   -99.0488174 Eh     change       -0.6102373E-01 Eh
 * total energy  :   -99.0895164 Eh     change       -0.4069899E-01 Eh
 * total energy  :   -99.1153557 Eh     change       -0.2583927E-01 Eh
 * total energy  :   -99.1318916 Eh     change       -0.1653597E-01 Eh
 * total energy  :   -99.1435982 Eh     change       -0.1170658E-01 Eh
 * total energy  :   -99.3342801 Eh     change       -0.2437367E-03 Eh
 * total energy  :   -99.3343638 Eh     change       -0.8370455E-04 Eh
 * total energy  :   -99.3345389 Eh     change       -0.1750954E-03 Eh
 * total energy  :   -99.3346363 Eh     change       -0.9737865E-04 Eh
 * total energy  :   -99.3347365 Eh     change       -0.1001653E-03 Eh
 * total energy  :   -99.3348602 Eh     change       -0.1237800E-03 Eh
 * total energy  :   -99.3349137 Eh     change       -0.5341828E-04 Eh
 * total energy  :   -99.3349992 Eh     change       -0.8551001E-04 Eh
 * total energy  :   -99.3350427 Eh     change       -0.4355639E-04 Eh
   *** GEOMETRY OPTIMIZATION CONVERGED AFTER 46 ITERATIONS ***

 final structure:
================
72
 xtb: 6.6.1 (8d0f1dd)
N           -1.06473898724771        1.45758491265629        2.03608334914303
C           -1.30843582690697        1.92357759760462        0.86161979037626
C           -2.21782255925091        1.38686482942018       -0.07662778273922
C           -3.03953515029551        0.24242150073316        0.16061700784120
C           -3.95781854391570       -0.23264486426702       -0.80707749493111
C           -4.72316374786989       -1.35869170788801       -0.59324599325138
O           -5.62959693294745       -1.86509817583833       -1.46230858659551
C           -5.89662557028575       -1.17402392723835       -2.65666154046728
C           -4.58640070245688       -2.09403829559509        0.61797129079148
O           -5.34810802099695       -3.19923680653268        0.71690612960421
C           -5.26552488844380       -3.98856555150975        1.88001428949888
C           -3.70183074214685       -1.62120740135680        1.58217564695088
C           -2.95891330540781       -0.48056910915969        1.36763911682918
C           -2.17795293496564        2.01467037708498       -1.43893715366968
C           -1.28274974208743        1.17331001892133       -2.40723824223477
C            0.11311448215179        1.16712446410481       -1.93777879943620
N            0.66903556182229        0.21436435167025       -1.20960927784961
C            2.02078088095437        0.35595544072160       -0.72402047015633
C            3.03356867024270       -0.41363922034180       -1.59514521761504
C            4.42508991138958       -0.20350032795569       -1.06666569994192
C            5.08975702023478        0.98867256377050       -1.30481879088377
C            6.35637215339084        1.21125480428624       -0.78862780772364
C            6.98710930359472        0.24049708146033       -0.02420864994929
O            8.21063059560651        0.35019426937820        0.52946827526114
C            8.93705228946641        1.54425035772438        0.35218663813828
C            6.31965459801130       -0.99147711705051        0.21392450992135
O            7.01181505132018       -1.88553510552200        0.94946867759625
C            6.45427953414378       -3.15444545347971        1.19492965413084
C            5.04852045079515       -1.18680946019783       -0.30338195885902
C            0.01620858552355       -1.04854324211592       -0.95522722294160
C           -5.07672574142380        2.88937128556639        1.61418773029638
C           -6.07745969578458        2.96938977063179        2.68163374666238
C           -4.29092892588059        4.05766521639497        1.19330210011746
H           -4.07949199104888        0.30016442809414       -1.73410133691418
H           -6.25813721282386       -0.15929291484028       -2.46111371738133
H           -6.67943116776744       -1.74289944314924       -3.15590052697544
H           -5.01578897137527       -1.13139064142310       -3.30475676319155
H           -5.56774260563686       -3.42698754106769        2.76903928458550
H           -5.95680509650793       -4.81493788658547        1.72322050782634
H           -4.25554661714860       -4.38398354290507        2.02491398496881
H           -3.58804881858202       -2.14702697034956        2.51659273950808
H           -2.28300291195646       -0.12208021587648        2.12720777777927
H           -3.16957381592315        2.09454484945554       -1.88235116657888
H           -1.76272860387481        3.02242691787835       -1.37837376368497
H           -1.69389152695627        0.16702843670334       -2.47101241995965
H           -1.32676394978221        1.64354286889457       -3.39271797884120
H           -0.77906072475036        2.82134812872772        0.49931294946362
H            0.70296964900092        2.05665929918988       -2.09787435017215
H            2.06414941313222       -0.01509706569003        0.30409866829163
H            2.29278802727299        1.41365788243233       -0.71555616534345
H            2.96470895895709       -0.04375248019310       -2.62107953476510
H            2.78914877071242       -1.47735906778750       -1.59633931464487
H            4.62592621383885        1.75455204055367       -1.90787884812011
H            6.84849663161903        2.14764857146926       -0.99368276466111
H            8.40203018818966        2.40367653640076        0.76831632214692
H            9.15717699664394        1.72642649553506       -0.70410015852339
H            9.86950696990622        1.40273460457371        0.89536222265870
H            7.20475634487193       -3.69705944385485        1.76661786984779
H            5.53433258511458       -3.08260707928749        1.78393797524028
H            6.25211503027649       -3.69098265216161        0.26275341449328
H            4.53217758276845       -2.11706636706700       -0.12502867958689
H           -0.24888123999524       -1.54543032484793       -1.89109348483136
H           -0.88915656718799       -0.90387177643914       -0.36311328305356
H            0.69019548127366       -1.69353844130238       -0.39947276934346
H           -4.89821950653488        1.94741621771788        1.12144045838317
H           -5.73768775066629        3.62081937416531        3.48898082322073
H           -6.32918034657393        1.98743798573111        3.07669999802756
H           -7.00509565023346        3.41963002945231        2.30264107493999
H           -3.25164315857829        3.94371176327200        1.52458946493917
H           -4.25221208482002        4.13561138578337        0.10500635704634
H           -4.68613661070230        4.97922562234896        1.61552588724033
H           -0.39839338749497        1.98209686286138        2.59000682464798

          :  Hamiltonian                  GFN2-xTB          :
         :: total energy             -99.335042733758 Eh    ::
         :: gradient norm              0.003639352920 Eh/a0 ::
         :: HOMO-LUMO gap              0.457944847452 eV    ::
         :: SCC energy              -100.727282829248 Eh    ::
         :: -> dispersion             -0.070926198360 Eh    ::
         :: repulsion energy           1.390973300594 Eh    ::

    * Orbital Energies and Occupations

         #    Occupation            Energy/Eh            Energy/eV
      -------------------------------------------------------------
         1        2.0000           -0.8022751             -21.8310
       ...           ...                  ...                  ...
        78        1.9993           -0.5327824             -14.4977
        79        1.9989           -0.5268295             -14.3358
        80        1.9988           -0.5245679             -14.2742
        81        1.9987           -0.5232706             -14.2389
        82        1.9985           -0.5209622             -14.1761
        83        1.9974           -0.5128462             -13.9553
        84        1.9963           -0.5069438             -13.7946
        85        1.9861           -0.4860329             -13.2256
        86        1.9810           -0.4810053             -13.0888
        87        1.9319           -0.4604031             -12.5282
        88        1.8792           -0.4508885             -12.2693
        89        1.8598           -0.4483582             -12.2004
        90        1.2501           -0.4155236             -11.3070 (HOMO)
        91        0.7309           -0.3986945             -10.8490 (LUMO)
        92        0.3855           -0.3847531             -10.4697
        93        0.0052           -0.3131291              -8.5207
        94        0.0030           -0.3044614              -8.2848
        95        0.0027           -0.3026012              -8.2342
        96        0.0023           -0.3006008              -8.1798
        97        0.0001           -0.2479983              -6.7484
        98        0.0000           -0.1796045              -4.8873
        99        0.0000           -0.1665566              -4.5322
       100                         -0.1214175              -3.3039
       101                         -0.0569634              -1.5501
       ...                                ...                  ...
       171                          0.5920655              16.1109
      -------------------------------------------------------------
                  HL-Gap            0.0168292 Eh            0.4579 eV

     #   Z          covCN         q      C6AA      α(0)
     1   7 N        1.776    -0.336    29.538     8.048
     2   6 C        2.823     0.068    26.462     8.429
     3   6 C        2.955    -0.036    28.888     8.816
     4   6 C        2.964     0.005    27.898     8.664
     5   6 C        2.918    -0.089    30.245     9.018
     6   6 C        2.859     0.127    25.208     8.229
     7   8 O        1.706    -0.239    17.961     5.722
     8   6 C        3.644     0.031    20.383     6.489
     9   6 C        2.864     0.131    25.139     8.219
    10   8 O        1.706    -0.223    17.707     5.681
    11   6 C        3.646     0.027    20.457     6.500
    12   6 C        2.910    -0.069    29.715     8.938
    13   6 C        2.922    -0.057    29.428     8.896
    14   6 C        3.810    -0.060    21.646     6.623
    15   6 C        3.802    -0.065    21.754     6.640
    16   6 C        2.847     0.008    27.839     8.647
    17   7 N        2.729     0.028    20.754     6.766
    18   6 C        3.757    -0.019    20.968     6.529
    19   6 C        3.807    -0.070    21.835     6.652
    20   6 C        2.969    -0.000    28.035     8.685
    21   6 C        2.922    -0.050    29.242     8.868
    22   6 C        2.914    -0.068    29.696     8.936
    23   6 C        2.865     0.132    25.107     8.213
    24   8 O        1.706    -0.225    17.736     5.686
    25   6 C        3.645     0.026    20.468     6.502
    26   6 C        2.863     0.132    25.102     8.212
    27   8 O        1.706    -0.227    17.768     5.691
    28   6 C        3.645     0.028    20.445     6.499
    29   6 C        2.919    -0.079    29.975     8.978
    30   6 C        3.700    -0.075    22.100     6.723
    31   6 C        2.883    -0.015    28.391     8.735
    32   6 C        3.752    -0.112    22.696     6.794
    33   6 C        3.752    -0.110    22.671     6.790
    34   1 H        0.926     0.044     2.396     2.421
    35   1 H        0.924     0.047     2.360     2.402
    36   1 H        0.925     0.077     2.007     2.216
    37   1 H        0.924     0.044     2.397     2.421
    38   1 H        0.924     0.054     2.265     2.354
    39   1 H        0.925     0.080     1.984     2.203
    40   1 H        0.924     0.052     2.289     2.366
    41   1 H        0.926     0.053     2.288     2.366
    42   1 H        0.926     0.092     1.864     2.135
    43   1 H        0.925     0.054     2.270     2.356
    44   1 H        0.924     0.043     2.405     2.425
    45   1 H        0.925     0.064     2.156     2.296
    46   1 H        0.924     0.069     2.098     2.265
    47   1 H        0.923    -0.010     3.246     2.818
    48   1 H        0.926     0.067     2.114     2.274
    49   1 H        0.924     0.073     2.055     2.242
    50   1 H        0.924     0.069     2.096     2.264
    51   1 H        0.924     0.056     2.247     2.344
    52   1 H        0.924     0.054     2.272     2.357
    53   1 H        0.926     0.042     2.416     2.431
    54   1 H        0.926     0.056     2.241     2.341
    55   1 H        0.924     0.052     2.292     2.368
    56   1 H        0.924     0.054     2.267     2.355
    57   1 H        0.925     0.081     1.974     2.197
    58   1 H        0.925     0.080     1.976     2.198
    59   1 H        0.924     0.049     2.337     2.390
    60   1 H        0.924     0.051     2.302     2.373
    61   1 H        0.926     0.047     2.352     2.398
    62   1 H        0.924     0.075     2.028     2.227
    63   1 H        0.924     0.091     1.866     2.136
    64   1 H        0.925     0.080     1.974     2.197
    65   1 H        0.926     0.054     2.275     2.358
    66   1 H        0.924     0.079     1.993     2.208
    67   1 H        0.925     0.065     2.142     2.289
    68   1 H        0.923     0.091     1.872     2.139
    69   1 H        0.924     0.081     1.971     2.196
    70   1 H        0.924     0.067     2.117     2.275
    71   1 H        0.925     0.068     2.108     2.271
    72   1 H        0.860     0.137     1.493     1.914

Wiberg/Mayer (AO) data.
largest (>0.10) Wiberg bond orders for each atom

     #   Z sym  total        # sym  WBO       # sym  WBO       # sym  WBO
 ---------------------------------------------------------------------------
     1   7 N    2.751 --     2 C    1.659    72 H    0.951
     2   6 C    3.934 --     1 N    1.659     3 C    1.274    47 H    0.933
     3   6 C    3.656 --     2 C    1.274     4 C    1.231    14 C    1.029
     4   6 C    3.958 --    13 C    1.288     5 C    1.272     3 C    1.231
     5   6 C    3.906 --     6 C    1.444     4 C    1.272    34 H    0.956
     6   6 C    3.901 --     5 C    1.444     9 C    1.204     7 O    1.085
     7   8 O    2.241 --     6 C    1.085     8 C    0.982
     8   6 C    3.937 --     7 O    0.982    36 H    0.977    35 H    0.974
                            37 H    0.974
     9   6 C    3.823 --    12 C    1.352     6 C    1.204    10 O    1.110
    10   8 O    2.241 --     9 C    1.110    11 C    0.977
    11   6 C    3.931 --    10 O    0.977    39 H    0.977    40 H    0.973
                            38 H    0.973
    12   6 C    3.964 --    13 C    1.470     9 C    1.352    41 H    0.963
    13   6 C    3.851 --    12 C    1.470     4 C    1.288    42 H    0.939
    14   6 C    3.957 --     3 C    1.029    44 H    0.972    43 H    0.959
                            15 C    0.921
    15   6 C    3.970 --    16 C    1.070    45 H    0.965    46 H    0.957
                            14 C    0.921
    16   6 C    3.585 --    17 N    1.434    15 C    1.070    48 H    0.959
    17   7 N    3.494 --    16 C    1.434    30 C    0.996    18 C    0.989
    18   6 C    3.955 --    17 N    0.989    19 C    0.968    50 H    0.967
                            49 H    0.962
    19   6 C    3.977 --    20 C    1.008    52 H    0.973    51 H    0.969
                            18 C    0.968
    20   6 C    3.948 --    21 C    1.409    29 C    1.383    19 C    1.008
    21   6 C    3.953 --    22 C    1.418    20 C    1.409    53 H    0.968
    22   6 C    3.962 --    21 C    1.418    23 C    1.384    54 H    0.963
    23   6 C    3.898 --    22 C    1.384    26 C    1.225    24 O    1.105
    24   8 O    2.253 --    23 C    1.105    25 C    0.977
    25   6 C    3.930 --    24 O    0.977    57 H    0.977    55 H    0.973
                            56 H    0.973
    26   6 C    3.902 --    29 C    1.394    23 C    1.225    27 O    1.101
    27   8 O    2.254 --    26 C    1.101    28 C    0.979
    28   6 C    3.933 --    27 O    0.979    58 H    0.977    60 H    0.974
                            59 H    0.974
    29   6 C    3.961 --    26 C    1.394    20 C    1.383    61 H    0.962
    30   6 C    3.954 --    17 N    0.996    64 H    0.978    62 H    0.966
                            63 H    0.956
    31   6 C    3.243 --    32 C    1.116    33 C    1.107    65 H    0.970
    32   6 C    3.977 --    31 C    1.116    67 H    0.976    66 H    0.950
                            68 H    0.913
    33   6 C    3.980 --    31 C    1.107    71 H    0.978    70 H    0.951
                            69 H    0.921
    34   1 H    0.997 --     5 C    0.956
    35   1 H    0.995 --     8 C    0.974
    36   1 H    0.993 --     8 C    0.977
    37   1 H    0.995 --     8 C    0.974
    38   1 H    0.991 --    11 C    0.973
    39   1 H    0.993 --    11 C    0.977
    40   1 H    0.992 --    11 C    0.973
    41   1 H    0.995 --    12 C    0.963
    42   1 H    0.988 --    13 C    0.939
    43   1 H    0.988 --    14 C    0.959
    44   1 H    0.996 --    14 C    0.972
    45   1 H    0.994 --    15 C    0.965
    46   1 H    0.985 --    15 C    0.957
    47   1 H    0.975 --     2 C    0.933
    48   1 H    0.995 --    16 C    0.959
    49   1 H    0.989 --    18 C    0.962
    50   1 H    0.994 --    18 C    0.967
    51   1 H    0.995 --    19 C    0.969
    52   1 H    0.996 --    19 C    0.973
    53   1 H    0.998 --    21 C    0.968
    54   1 H    0.995 --    22 C    0.963
    55   1 H    0.993 --    25 C    0.973
    56   1 H    0.992 --    25 C    0.973
    57   1 H    0.993 --    25 C    0.977
    58   1 H    0.993 --    28 C    0.977
    59   1 H    0.993 --    28 C    0.974
    60   1 H    0.993 --    28 C    0.974
    61   1 H    0.997 --    29 C    0.962
    62   1 H    0.986 --    30 C    0.966
    63   1 H    0.983 --    30 C    0.956
    64   1 H    0.993 --    30 C    0.978
    65   1 H    0.997 --    31 C    0.970
    66   1 H    0.970 --    32 C    0.950
    67   1 H    0.990 --    32 C    0.976
    68   1 H    0.938 --    32 C    0.913
    69   1 H    0.946 --    33 C    0.921
    70   1 H    0.969 --    33 C    0.951
    71   1 H    0.993 --    33 C    0.978
    72   1 H    0.973 --     1 N    0.951
 ---------------------------------------------------------------------------

molecular dipole:
                 x           y           z       tot (Debye)
 q only:       -0.802       0.876      -0.528
   full:       -0.689       1.341      -0.789       4.325

           -------------------------------------------------
          | TOTAL ENERGY              -99.335042733758 Eh   |
          | GRADIENT NORM               0.003639352920 Eh/α |
          | HOMO-LUMO GAP               0.457944847452 eV   |
           -------------------------------------------------

 * finished run on 2024/04/06 at 11:11:55.535
