   * xtb version 6.6.1 (8d0f1dd) compiled by 'conda@1efc2f54142f' on 2023-08-01
          program call               : xtb xtbopt.xyz --opt crude --input .xc2 --gfn2

   ID    Z sym.   atoms
    1    6 C      1, 3, 5-7, 10, 11, 14
    2    7 N      2, 4, 9, 13
    3    8 O      8, 12
    4    1 H      15-25
########################################################################
[WARNING] Please study the warnings concerning your input carefully
-1- readin_getIntValue: could not parse ''
########################################################################

          :  Hamiltonian                  GFN2-xTB          :
 * total energy  :   -42.1756328 Eh     change       -0.5684342E-12 Eh
   *** GEOMETRY OPTIMIZATION CONVERGED AFTER 1 ITERATIONS ***

 final structure:
================
25
 xtb: 6.6.1 (8d0f1dd)
C            3.23693822146622        1.20346015855246        0.07672804278770
N            2.32944762495196        0.08870910764615        0.05176702301037
C            2.65947576092474       -1.20969309009603        0.06053670734647
N            1.53587464260638       -1.96752534284076        0.03515546122001
C            0.46059876358670       -1.12199948448495        0.01046946337222
C            0.95578576439658        0.17863708365951        0.02042928750166
C            0.10811203579132        1.33442301492379       -0.03021148494876
O            0.44122841078335        2.50146195232125       -0.04663814984766
N           -1.25217974758430        0.94420426384760       -0.06173559972063
C           -2.24945748916677        2.00057167216134       -0.08738250937307
C           -1.69624106181602       -0.33053236750777       -0.03701441539948
O           -3.01204490394723       -0.50808364376338       -0.01723147345241
N           -0.87589924168719       -1.42567000879377       -0.02678156994942
C           -1.34740225608323       -2.70164892687737       -0.01081196247025
H            3.83485993663161        1.18576142225390        0.98832871996070
H            3.90632159716082        1.16668539322491       -0.78299586380401
H            2.65553461237317        2.12386065648430        0.04334513984502
H            3.65769554103999       -1.59507347006074        0.07962363160958
H           -1.71393577718984        2.94807321623646       -0.08643138118334
H           -2.86312486633607        1.91744394334185       -0.98284936816532
H           -2.89123792470536        1.93160484898441        0.78957967445186
H           -0.66738453961549       -3.49625399863010        0.17569065948430
H           -2.34276099511710       -2.93513121557579       -0.31724067964603
H           -3.22334784980853       -1.43957845470604        0.17028887561167
H            1.51357525544426       -2.97546818870134        0.01655338965874

          :  Hamiltonian                  GFN2-xTB          :
         :: total energy             -42.175632818668 Eh    ::
         :: gradient norm              0.005516265808 Eh/a0 ::
         :: HOMO-LUMO gap              1.406754386619 eV    ::
         :: SCC energy               -42.693739515349 Eh    ::
         :: -> dispersion             -0.023012291505 Eh    ::
         :: repulsion energy           0.518002541425 Eh    ::

    * Orbital Energies and Occupations

         #    Occupation            Energy/Eh            Energy/eV
      -------------------------------------------------------------
         1        2.0000           -0.9004022             -24.5012
       ...           ...                  ...                  ...
        25        2.0000           -0.6682822             -18.1849
        26        2.0000           -0.6626996             -18.0330
        27        2.0000           -0.6585082             -17.9189
        28        2.0000           -0.6429355             -17.4952
        29        2.0000           -0.6344915             -17.2654
        30        2.0000           -0.6219650             -16.9245
        31        2.0000           -0.6183427             -16.8260
        32        1.9999           -0.6019251             -16.3792
        33        1.9999           -0.5995332             -16.3141
        34        1.9995           -0.5792957             -15.7634
        35        1.9989           -0.5674430             -15.4409
        36        1.9969           -0.5505803             -14.9821
        37        1.5885           -0.4697259             -12.7819 (HOMO)
        38        0.2570           -0.4180286             -11.3751 (LUMO)
        39        0.1444           -0.4079098             -11.0998
        40        0.0151           -0.3711182             -10.0986
        41        0.0000           -0.2795573              -7.6071
        42        0.0000           -0.1944010              -5.2899
        43        0.0000           -0.1853748              -5.0443
        44                         -0.1415965              -3.8530
        45                         -0.1267940              -3.4502
        46                         -0.0924739              -2.5163
        47                         -0.0523932              -1.4257
        48                         -0.0308382              -0.8391
       ...                                ...                  ...
        67                          0.5394055              14.6780
      -------------------------------------------------------------
                  HL-Gap            0.0516973 Eh            1.4068 eV

     #   Z          covCN         q      C6AA      α(0)
     1   6 C        3.691    -0.092    22.453     6.781
     2   7 N        2.826     0.067    20.079     6.655
     3   6 C        3.036     0.039    27.096     8.538
     4   7 N        2.781    -0.060    22.408     7.031
     5   6 C        3.075     0.081    26.117     8.379
     6   6 C        3.097    -0.018    28.344     8.725
     7   6 C        2.766     0.248    22.846     7.828
     8   8 O        0.857    -0.390    21.485     6.215
     9   7 N        2.746    -0.047    22.152     6.990
    10   6 C        3.707    -0.071    22.006     6.705
    11   6 C        2.773     0.225    23.261     7.899
    12   8 O        1.660    -0.330    19.542     5.968
    13   7 N        2.736     0.022    20.865     6.784
    14   6 C        2.797    -0.146    31.743     9.230
    15   1 H        0.924     0.101     1.779     2.086
    16   1 H        0.924     0.101     1.779     2.086
    17   1 H        0.925     0.133     1.510     1.922
    18   1 H        0.927     0.117     1.637     2.001
    19   1 H        0.925     0.124     1.583     1.968
    20   1 H        0.925     0.098     1.808     2.103
    21   1 H        0.925     0.097     1.817     2.108
    22   1 H        0.927     0.060     2.194     2.316
    23   1 H        0.927     0.065     2.144     2.290
    24   1 H        0.804     0.355     0.576     1.192
    25   1 H        0.860     0.224     0.992     1.561

Wiberg/Mayer (AO) data.
largest (>0.10) Wiberg bond orders for each atom

     #   Z sym  total        # sym  WBO       # sym  WBO       # sym  WBO
 ---------------------------------------------------------------------------
     1   6 C    3.920 --     2 N    0.988    16 H    0.962    17 H    0.962
                            15 H    0.961
     2   7 N    3.601 --     3 C    1.331     6 C    1.153     1 C    0.988
     3   6 C    3.733 --     2 N    1.331     4 N    1.258    18 H    0.956
     4   7 N    3.526 --     3 C    1.258     5 C    1.178    25 H    0.920
     5   6 C    3.856 --     6 C    1.334     4 N    1.178    13 N    1.111
     6   6 C    3.879 --     5 C    1.334     2 N    1.153     7 C    1.108
     7   6 C    3.895 --     8 O    1.637     6 C    1.108     9 N    1.036
     8   8 O    1.941 --     7 C    1.637     9 N    0.135
     9   7 N    3.543 --    11 C    1.244     7 C    1.036    10 C    0.970
                             8 O    0.135
    10   6 C    3.916 --     9 N    0.970    20 H    0.966    21 H    0.965
                            19 H    0.965
    11   6 C    3.775 --     9 N    1.244    13 N    1.154    12 O    1.145
                            14 C    0.112
    12   8 O    2.163 --    11 C    1.145    24 H    0.827
    13   7 N    3.652 --    14 C    1.189    11 C    1.154     5 C    1.111
    14   6 C    3.402 --    13 N    1.189    22 H    0.974    23 H    0.961
                            11 C    0.112
    15   1 H    0.984 --     1 C    0.961
    16   1 H    0.984 --     1 C    0.962
    17   1 H    0.982 --     1 C    0.962
    18   1 H    0.985 --     3 C    0.956
    19   1 H    0.984 --    10 C    0.965
    20   1 H    0.986 --    10 C    0.966
    21   1 H    0.986 --    10 C    0.965
    22   1 H    0.996 --    14 C    0.974
    23   1 H    0.994 --    14 C    0.961
    24   1 H    0.872 --    12 O    0.827
    25   1 H    0.949 --     4 N    0.920
 ---------------------------------------------------------------------------

molecular dipole:
                 x           y           z       tot (Debye)
 q only:        1.026      -1.906       0.142
   full:        1.087      -2.670       0.138       7.337

           -------------------------------------------------
          | TOTAL ENERGY              -42.175632818668 Eh   |
          | GRADIENT NORM               0.005516265808 Eh/α |
          | HOMO-LUMO GAP               1.406754386619 eV   |
           -------------------------------------------------

 * finished run on 2024/06/05 at 20:00:20.803
