   * xtb version 6.6.1 (8d0f1dd) compiled by 'conda@1efc2f54142f' on 2023-08-01
          program call               : xtb xtbopt.xyz --opt crude --input .xc2 --gfn2

   ID    Z sym.   atoms
    1    7 N      1, 17
    2    6 C      2-6, 8, 9, 11-16, 18-23, 25, 26, 28-33
    3    8 O      7, 10, 24, 27
    4    1 H      34-72

          :  Hamiltonian                  GFN2-xTB          :
 * total energy  :   -99.3925893 Eh     change       -0.1421085E-12 Eh
   *** GEOMETRY OPTIMIZATION CONVERGED AFTER 1 ITERATIONS ***

 final structure:
================
72
 xtb: 6.6.1 (8d0f1dd)
N           -2.10838516035524        2.94861104530652        2.04865797788421
C           -1.83513764386216        2.15410069626559        1.11730915112015
C           -2.93218312487722        1.87882192546251        0.10992980205777
C           -3.44856479706059        0.45670994750661        0.20993584609997
C           -4.47180845419930        0.04451130017985       -0.64608735775205
C           -4.99608697616888       -1.23493112545045       -0.58132982090814
O           -5.98056378222898       -1.71496159333818       -1.36737753967290
C           -6.57578193132320       -0.86868331240765       -2.32242067743510
C           -4.48474424206481       -2.15057066664605        0.37922852126305
O           -5.04894961460239       -3.37467751617018        0.36955656187670
C           -4.64181111630984       -4.32431235721435        1.32659730446644
C           -3.47812756253435       -1.72888486623319        1.23257630580715
C           -2.96585181423469       -0.43903815920779        1.14942996021765
C           -2.41413385089981        2.16432060872878       -1.31331712979876
C           -1.45818742842018        1.08047091385108       -1.84919944186714
C           -0.12311771611221        1.11478221380733       -1.21940334831397
N            0.51745016680843        0.08157132374124       -0.69653098973976
C            1.88630192413176        0.21747130934255       -0.25510354869953
C            2.87695632806539       -0.29587157062421       -1.31815686222842
C            4.29148068062675       -0.09509283436686       -0.85124089049272
C            4.93177097871154        1.11816844906674       -1.04697762880449
C            6.23313511995604        1.31242105631313       -0.61188322156841
C            6.92198611224222        0.29451246830413        0.03248540899134
O            8.18803953840913        0.36603834851589        0.48205481559509
C            8.93213018634126        1.54171726424881        0.25847879202122
C            6.26869831698764       -0.95035774266107        0.24991514858046
O            7.00755510375933       -1.88202427919449        0.88373956330314
C            6.45826760123517       -3.15674688618656        1.11756538837378
C            4.96590969074849       -1.11998066023350       -0.19240003310251
C           -0.05000199196432       -1.24519640830289       -0.67370399647988
C           -4.04215369021603        2.86340389128207        0.61531516829414
C           -3.45879184420961        3.41634802393231        1.94481285543026
C           -4.41542458927889        4.00254830441798       -0.32605205454619
H           -4.87297954534719        0.74625854077758       -1.35898207909532
H           -7.05330952847535       -0.00372810691668       -1.85151844555638
H           -7.33452953495682       -1.47339395595889       -2.81526939586353
H           -5.84843327761181       -0.52640173011297       -3.06587970236953
H           -4.80943245034572       -3.96470742885149        2.34591025302524
H           -5.25950301603955       -5.20217352143084        1.14802435608838
H           -3.58780181114195       -4.59208566545147        1.20196042792939
H           -3.08510595051903       -2.39592684671259        1.98271328068276
H           -2.20326360099689       -0.13607658275230        1.85037957503897
H           -3.25788747457251        2.22372467198040       -1.99887403831121
H           -1.90560662584789        3.12916158099542       -1.32524007468440
H           -1.92736271354113        0.10234205817244       -1.75847246734435
H           -1.32076063319819        1.28847161215639       -2.91793654805962
H           -0.85190732892355        1.71775596368597        1.03724660434355
H            0.39685179128684        2.06083269492527       -1.20835327701595
H            2.02134304542177       -0.34673782870216        0.67118116331885
H            2.09872824960422        1.26809714332406       -0.04884095423421
H            2.71103272889484        0.25610856361154       -2.24510892763027
H            2.69325272699307       -1.35389330439785       -1.50861662333816
H            4.42245693534016        1.92195749624911       -1.55650649034871
H            6.70696303656431        2.26452994988167       -0.78506427195356
H            8.49633897508768        2.39765721279388        0.78261333302663
H            9.01156405366064        1.76786386690941       -0.80891875188916
H            9.92343834670317        1.34029921525927        0.65956246584717
H            7.24033378815488       -3.72467287598647        1.61759689730099
H            5.57978777490926       -3.10207624051883        1.76845362547941
H            6.19110601508708       -3.65639672086331        0.18123702619029
H            4.46570727740229       -2.06392004122595       -0.04217406235614
H           -0.13573100419553       -1.65736833288714       -1.68140021964536
H           -1.04199762447720       -1.22775638686571       -0.21630163960366
H            0.58958597793869       -1.89781623054062       -0.08511576612349
H           -4.94751361684866        2.28931673015367        0.82641105747430
H           -3.64148723224509        0.62608266412629        4.08082475774076
H           -4.01118391924585        3.06103689068911        2.81906715974358
H           -3.45331958710456        4.50910899786310        1.97997544458882
H           -3.55546915167657        4.61820841309922       -0.57015340488290
H           -4.85578920013373        3.63427074346050       -1.24931871692684
H           -5.15509939500496        4.63347229361493        0.16159822806008
H           -3.07637532068971        1.05751490690734        4.39815101397022

          :  Hamiltonian                  GFN2-xTB          :
         :: total energy             -99.392589320751 Eh    ::
         :: gradient norm              0.002600540220 Eh/a0 ::
         :: HOMO-LUMO gap              1.634187368003 eV    ::
         :: SCC energy              -100.780272220179 Eh    ::
         :: -> dispersion             -0.074088226192 Eh    ::
         :: repulsion energy           1.386542395626 Eh    ::

    * Orbital Energies and Occupations

         #    Occupation            Energy/Eh            Energy/eV
      -------------------------------------------------------------
         1        2.0000           -0.8090084             -22.0142
       ...           ...                  ...                  ...
        78        1.9987           -0.5328554             -14.4997
        79        1.9986           -0.5324865             -14.4897
        80        1.9982           -0.5284554             -14.3800
        81        1.9982           -0.5281371             -14.3713
        82        1.9973           -0.5217600             -14.1978
        83        1.9970           -0.5201663             -14.1544
        84        1.9969           -0.5195789             -14.1385
        85        1.9915           -0.5035285             -13.7017
        86        1.9808           -0.4905508             -13.3486
        87        1.9778           -0.4882023             -13.2847
        88        1.9371           -0.4714053             -12.8276
        89        1.8723           -0.4596580             -12.5079
        90        1.8376           -0.4555559             -12.3963 (HOMO)
        91        0.4064           -0.3955007             -10.7621 (LUMO)
        92        0.0077           -0.3292600              -8.9596
        93        0.0035           -0.3165748              -8.6144
        94        0.0029           -0.3136111              -8.5338
        95        0.0026           -0.3120196              -8.4905
        96        0.0023           -0.3098620              -8.4318
        97        0.0000           -0.1910986              -5.2001
        98        0.0000           -0.1872360              -5.0950
        99                         -0.1352240              -3.6796
       100                         -0.0821429              -2.2352
       101                         -0.0638390              -1.7371
       ...                                ...                  ...
       171                          0.5763404              15.6830
      -------------------------------------------------------------
                  HL-Gap            0.0600553 Eh            1.6342 eV

     #   Z          covCN         q      C6AA      α(0)
     1   7 N        1.835    -0.197    26.103     7.571
     2   6 C        2.966     0.064    26.572     8.455
     3   6 C        3.921    -0.000    20.523     6.438
     4   6 C        2.972    -0.003    28.104     8.696
     5   6 C        2.920    -0.081    30.018     8.985
     6   6 C        2.862     0.130    25.146     8.219
     7   8 O        1.706    -0.229    17.801     5.696
     8   6 C        3.644     0.028    20.438     6.498
     9   6 C        2.864     0.129    25.168     8.223
    10   8 O        1.706    -0.228    17.788     5.694
    11   6 C        3.645     0.027    20.451     6.499
    12   6 C        2.914    -0.074    29.852     8.959
    13   6 C        2.920    -0.056    29.397     8.891
    14   6 C        3.807    -0.062    21.684     6.629
    15   6 C        3.802    -0.069    21.811     6.649
    16   6 C        2.845     0.007    27.846     8.648
    17   7 N        2.729     0.021    20.890     6.788
    18   6 C        3.757    -0.019    20.963     6.528
    19   6 C        3.808    -0.070    21.841     6.653
    20   6 C        2.969     0.000    28.021     8.683
    21   6 C        2.922    -0.048    29.199     8.861
    22   6 C        2.914    -0.067    29.667     8.932
    23   6 C        2.865     0.134    25.069     8.207
    24   8 O        1.706    -0.221    17.663     5.674
    25   6 C        3.645     0.025    20.495     6.506
    26   6 C        2.863     0.134    25.078     8.208
    27   8 O        1.706    -0.224    17.709     5.682
    28   6 C        3.645     0.027    20.459     6.501
    29   6 C        2.919    -0.079    29.976     8.978
    30   6 C        3.700    -0.074    22.075     6.719
    31   6 C        3.875    -0.025    20.975     6.512
    32   6 C        3.862     0.001    20.527     6.443
    33   6 C        3.753    -0.110    22.667     6.789
    34   1 H        0.926     0.050     2.315     2.379
    35   1 H        0.924     0.053     2.285     2.364
    36   1 H        0.925     0.081     1.967     2.194
    37   1 H        0.924     0.047     2.353     2.399
    38   1 H        0.924     0.055     2.263     2.353
    39   1 H        0.925     0.081     1.967     2.193
    40   1 H        0.924     0.048     2.342     2.393
    41   1 H        0.926     0.051     2.307     2.375
    42   1 H        0.926     0.041     2.441     2.443
    43   1 H        0.925     0.061     2.189     2.314
    44   1 H        0.924     0.052     2.290     2.367
    45   1 H        0.925     0.065     2.140     2.288
    46   1 H        0.924     0.081     1.971     2.196
    47   1 H        0.926     0.036     2.507     2.476
    48   1 H        0.926     0.073     2.057     2.243
    49   1 H        0.924     0.070     2.081     2.256
    50   1 H        0.924     0.071     2.072     2.251
    51   1 H        0.924     0.056     2.251     2.346
    52   1 H        0.924     0.056     2.251     2.346
    53   1 H        0.926     0.046     2.374     2.410
    54   1 H        0.926     0.059     2.207     2.323
    55   1 H        0.924     0.055     2.253     2.347
    56   1 H        0.924     0.056     2.248     2.345
    57   1 H        0.925     0.083     1.951     2.184
    58   1 H        0.925     0.082     1.956     2.187
    59   1 H        0.924     0.050     2.326     2.385
    60   1 H        0.924     0.053     2.288     2.365
    61   1 H        0.926     0.048     2.348     2.396
    62   1 H        0.924     0.077     2.009     2.217
    63   1 H        0.924     0.084     1.940     2.178
    64   1 H        0.925     0.081     1.971     2.195
    65   1 H        0.924     0.040     2.443     2.444
    66   1 H        0.808    -0.006     3.224     2.820
    67   1 H        0.924     0.062     2.176     2.307
    68   1 H        0.924     0.068     2.111     2.272
    69   1 H        0.925     0.044     2.393     2.419
    70   1 H        0.925     0.040     2.446     2.446
    71   1 H        0.925     0.053     2.284     2.363
    72   1 H        0.808     0.009     2.958     2.701

Wiberg/Mayer (AO) data.
largest (>0.10) Wiberg bond orders for each atom

     #   Z sym  total        # sym  WBO       # sym  WBO       # sym  WBO
 ---------------------------------------------------------------------------
     1   7 N    3.049 --     2 C    1.907    32 C    1.032
     2   6 C    3.954 --     1 N    1.907     3 C    0.972    47 H    0.951
     3   6 C    3.973 --     4 C    0.976     2 C    0.972    14 C    0.968
                            31 C    0.948
     4   6 C    3.949 --    13 C    1.417     5 C    1.367     3 C    0.976
     5   6 C    3.962 --     6 C    1.403     4 C    1.367    34 H    0.960
     6   6 C    3.905 --     5 C    1.403     9 C    1.220     7 O    1.100
     7   8 O    2.256 --     6 C    1.100     8 C    0.978
     8   6 C    3.932 --     7 O    0.978    36 H    0.977    37 H    0.974
                            35 H    0.973
     9   6 C    3.902 --    12 C    1.395     6 C    1.220    10 O    1.102
    10   8 O    2.253 --     9 C    1.102    11 C    0.978
    11   6 C    3.931 --    10 O    0.978    39 H    0.977    40 H    0.974
                            38 H    0.973
    12   6 C    3.962 --    13 C    1.399     9 C    1.395    41 H    0.964
    13   6 C    3.955 --     4 C    1.417    12 C    1.399    42 H    0.963
    14   6 C    3.969 --    15 C    0.975    44 H    0.973     3 C    0.968
                            43 H    0.966
    15   6 C    3.987 --    16 C    1.064    14 C    0.975    45 H    0.963
                            46 H    0.929
    16   6 C    3.576 --    17 N    1.425    15 C    1.064    48 H    0.957
    17   7 N    3.485 --    16 C    1.425    30 C    0.997    18 C    0.987
    18   6 C    3.954 --    17 N    0.987    50 H    0.967    19 C    0.966
                            49 H    0.963
    19   6 C    3.976 --    20 C    1.008    52 H    0.972    51 H    0.971
                            18 C    0.966
    20   6 C    3.943 --    21 C    1.407    29 C    1.381    19 C    1.008
    21   6 C    3.949 --    22 C    1.419    20 C    1.407    53 H    0.968
    22   6 C    3.959 --    21 C    1.419    23 C    1.382    54 H    0.963
    23   6 C    3.894 --    22 C    1.382    26 C    1.219    24 O    1.112
    24   8 O    2.255 --    23 C    1.112    25 C    0.976
    25   6 C    3.928 --    57 H    0.977    24 O    0.976    56 H    0.973
                            55 H    0.972
    26   6 C    3.897 --    29 C    1.393    23 C    1.219    27 O    1.105
    27   8 O    2.254 --    26 C    1.105    28 C    0.978
    28   6 C    3.931 --    27 O    0.978    58 H    0.977    59 H    0.973
                            60 H    0.973
    29   6 C    3.958 --    26 C    1.393    20 C    1.381    61 H    0.962
    30   6 C    3.955 --    17 N    0.997    64 H    0.977    62 H    0.966
                            63 H    0.957
    31   6 C    3.974 --    33 C    1.014    32 C    0.971    65 H    0.969
                             3 C    0.948
    32   6 C    3.973 --     1 N    1.032    31 C    0.971    68 H    0.954
                            67 H    0.951
    33   6 C    3.990 --    31 C    1.014    69 H    0.984    70 H    0.981
                            71 H    0.981
    34   1 H    0.996 --     5 C    0.960
    35   1 H    0.993 --     8 C    0.973
    36   1 H    0.993 --     8 C    0.977
    37   1 H    0.994 --     8 C    0.974
    38   1 H    0.993 --    11 C    0.973
    39   1 H    0.993 --    11 C    0.977
    40   1 H    0.993 --    11 C    0.974
    41   1 H    0.996 --    12 C    0.964
    42   1 H    0.998 --    13 C    0.963
    43   1 H    0.994 --    14 C    0.966
    44   1 H    0.996 --    14 C    0.973
    45   1 H    0.995 --    15 C    0.963
    46   1 H    0.970 --    15 C    0.929
    47   1 H    0.997 --     2 C    0.951
    48   1 H    0.995 --    16 C    0.957
    49   1 H    0.990 --    18 C    0.963
    50   1 H    0.994 --    18 C    0.967
    51   1 H    0.995 --    19 C    0.971
    52   1 H    0.996 --    19 C    0.972
    53   1 H    0.997 --    21 C    0.968
    54   1 H    0.995 --    22 C    0.963
    55   1 H    0.991 --    25 C    0.972
    56   1 H    0.992 --    25 C    0.973
    57   1 H    0.992 --    25 C    0.977
    58   1 H    0.993 --    28 C    0.977
    59   1 H    0.993 --    28 C    0.973
    60   1 H    0.993 --    28 C    0.973
    61   1 H    0.996 --    29 C    0.962
    62   1 H    0.984 --    30 C    0.966
    63   1 H    0.986 --    30 C    0.957
    64   1 H    0.993 --    30 C    0.977
    65   1 H    0.996 --    31 C    0.969
    66   1 H    0.999 --    72 H    0.997
    67   1 H    0.994 --    32 C    0.951
    68   1 H    0.993 --    32 C    0.954
    69   1 H    0.997 --    33 C    0.984
    70   1 H    0.997 --    33 C    0.981
    71   1 H    0.996 --    33 C    0.981
    72   1 H    0.999 --    66 H    0.997
 ---------------------------------------------------------------------------

molecular dipole:
                 x           y           z       tot (Debye)
 q only:        0.625      -0.022      -1.094
   full:        0.406      -0.016      -1.360       3.607

           -------------------------------------------------
          | TOTAL ENERGY              -99.392589320751 Eh   |
          | GRADIENT NORM               0.002600540220 Eh/α |
          | HOMO-LUMO GAP               1.634187368003 eV   |
           -------------------------------------------------

 * finished run on 2024/04/06 at 11:14:55.343
