   * xtb version 6.6.1 (8d0f1dd) compiled by 'conda@1efc2f54142f' on 2023-08-01
          program call               : xtb struc.xyz --opt loose --input .xc1 --gfn2

   ID    Z sym.   atoms
    1    6 C      1, 3, 5-7, 10, 11, 14
    2    7 N      2, 4, 9, 13
    3    8 O      8, 12
    4    1 H      15-25
constraining bond 12 20 to    4.6333300 Å, actual value:    2.6315711 Å

          :  Hamiltonian                  GFN2-xTB          :
 * total energy  :   -49.3999797 Eh     change       -0.6633627E-10 Eh
 * total energy  :   -55.6945387 Eh     change       -0.6294559E+01 Eh
 * total energy  :   -63.8807832 Eh     change       -0.8186245E+01 Eh
 * total energy  :   -71.9575773 Eh     change       -0.8076794E+01 Eh
 * total energy  :   -71.6798494 Eh     change        0.2777279E+00 Eh
 * total energy  :   -72.0100125 Eh     change       -0.3301631E+00 Eh
 * total energy  :   -72.0419045 Eh     change       -0.3189200E-01 Eh
 * total energy  :   -72.0865203 Eh     change       -0.4461577E-01 Eh
 * total energy  :   -72.1152926 Eh     change       -0.2877232E-01 Eh
 * total energy  :   -72.1321539 Eh     change       -0.1686132E-01 Eh
 * total energy  :   -72.2055405 Eh     change       -0.1638324E-03 Eh
 * total energy  :   -72.2056564 Eh     change       -0.1158923E-03 Eh
 * total energy  :   -72.2057248 Eh     change       -0.6838876E-04 Eh
 * total energy  :   -72.2057766 Eh     change       -0.5183680E-04 Eh
 * total energy  :   -72.2058184 Eh     change       -0.4176319E-04 Eh
 * total energy  :   -72.2058493 Eh     change       -0.3096862E-04 Eh
 * total energy  :   -72.2058778 Eh     change       -0.2840642E-04 Eh
 * total energy  :   -72.2058991 Eh     change       -0.2134397E-04 Eh
 * total energy  :   -72.2059179 Eh     change       -0.1875713E-04 Eh
   *** GEOMETRY OPTIMIZATION CONVERGED AFTER 43 ITERATIONS ***

 final structure:
================
25
 xtb: 6.6.1 (8d0f1dd)
C            3.30755392700733        1.10183302445155        0.06758369258367
N            2.31068262554587        0.06675597716222        0.01430416992417
C            2.52750032704562       -1.24451264818086       -0.02291151152968
N            1.35094376348890       -1.91266905394514       -0.04907204571606
C            0.34137591706383       -0.98875913629726       -0.03060221340423
C            0.94109225259982        0.27873126680582        0.01122074985646
C            0.21257470794203        1.48629161740677        0.03669157716920
O            0.62139498331867        2.62502422190363        0.05745211659845
N           -1.24594720919690        1.24080243108806        0.03480366576264
C           -2.00764885831743        2.33009242511984        0.07306264034064
C           -1.76405323632437       -0.01950572278358       -0.00107137822604
O           -3.10801950257493       -0.18906827179499       -0.02112407273513
N           -0.98744591089140       -1.15505625400915       -0.03949867823565
C           -1.57821578437543       -2.47917917561840       -0.07178827885767
H            3.88763002472595        1.02357048877080        0.98778940285715
H            3.98472037502486        1.02218503873757       -0.78290435949175
H            2.80516167094109        2.06775790348574        0.04213904646902
H            3.49173370332957       -1.71123874713537       -0.03008624954425
H           -1.50662368954195        3.27631584355894        0.10034542807081
H           -3.39869442798358        0.08124247877284       -0.10801915764514
H           -3.07558501291185        2.26856453351878        0.09116789990594
H           -1.23371506295701       -3.06121807549751        0.78330071722414
H           -1.30836985436207       -2.98699296677931       -0.99848494299137
H           -2.65930982962027       -2.38785717182720       -0.02063715145573
H            1.25169561512355       -2.91487148531402       -0.09248944902906

          :  Hamiltonian                  GFN2-xTB          :
         :: total energy             -72.205917854034 Eh    ::
         :: gradient norm              0.003491469104 Eh/a0 ::
         :: HOMO-LUMO gap              0.954609995097 eV    ::
         :: SCC energy               -42.715988628111 Eh    ::
         :: -> dispersion             -0.022977210686 Eh    ::
         :: repulsion energy           2.412888599539 Eh    ::

    * Orbital Energies and Occupations

         #    Occupation            Energy/Eh            Energy/eV
      -------------------------------------------------------------
         1        2.0000           -0.9061773             -24.6583
       ...           ...                  ...                  ...
        25        2.0000           -0.6653486             -18.1051
        26        2.0000           -0.6627514             -18.0344
        27        2.0000           -0.6480761             -17.6350
        28        2.0000           -0.6346931             -17.2709
        29        2.0000           -0.6285966             -17.1050
        30        2.0000           -0.6234275             -16.9643
        31        2.0000           -0.6190126             -16.8442
        32        2.0000           -0.6171328             -16.7930
        33        2.0000           -0.5998479             -16.3227
        34        2.0000           -0.5862049             -15.9514
        35        2.0000           -0.5533660             -15.0579
        36        2.0000           -0.5499343             -14.9645
        37        1.8021           -0.4558386             -12.4040 (HOMO)
        38        0.1956           -0.4207573             -11.4494 (LUMO)
        39        0.0019           -0.3834110             -10.4331
        40        0.0004           -0.3699483             -10.0668
        41                         -0.2732891              -7.4366
        42                         -0.2022393              -5.5032
        43                         -0.1872278              -5.0947
        44                         -0.1597509              -4.3470
        45                         -0.1240489              -3.3755
        46                         -0.0825030              -2.2450
        47                         -0.0372552              -1.0138
        48                         -0.0140398              -0.3820
       ...                                ...                  ...
        67                          5.3383076             145.2627
      -------------------------------------------------------------
                  HL-Gap            0.0350813 Eh            0.9546 eV

     #   Z          covCN         q      C6AA      α(0)
     1   6 C        3.691    -0.093    22.465     6.783
     2   7 N        2.823     0.069    20.034     6.648
     3   6 C        3.035     0.046    26.929     8.512
     4   7 N        2.778    -0.065    22.494     7.044
     5   6 C        3.055     0.082    26.124     8.382
     6   6 C        3.085    -0.033    28.729     8.786
     7   6 C        2.775     0.244    22.909     7.839
     8   8 O        0.857    -0.370    21.091     6.157
     9   7 N        2.736    -0.006    21.378     6.867
    10   6 C        2.812    -0.093    30.314     9.021
    11   6 C        2.807     0.183    24.075     8.039
    12   8 O        1.664    -0.385    20.563     6.122
    13   7 N        2.736    -0.008    21.407     6.872
    14   6 C        3.699    -0.083    22.255     6.747
    15   1 H        0.924     0.101     1.778     2.085
    16   1 H        0.925     0.100     1.785     2.089
    17   1 H        0.925     0.133     1.516     1.926
    18   1 H        0.926     0.116     1.644     2.005
    19   1 H        0.926     0.107     1.723     2.053
    20   1 H        0.861     0.368     0.542     1.153
    21   1 H        0.927     0.067     2.117     2.275
    22   1 H        0.924     0.089     1.886     2.148
    23   1 H        0.924     0.090     1.880     2.144
    24   1 H        0.925     0.120     1.617     1.988
    25   1 H        0.860     0.220     1.009     1.573

Wiberg/Mayer (AO) data.
largest (>0.10) Wiberg bond orders for each atom

     #   Z sym  total        # sym  WBO       # sym  WBO       # sym  WBO
 ---------------------------------------------------------------------------
     1   6 C    3.922 --     2 N    0.988    16 H    0.963    17 H    0.962
                            15 H    0.961
     2   7 N    3.636 --     3 C    1.377     6 C    1.120     1 C    0.988
     3   6 C    3.810 --     2 N    1.377     4 N    1.264    18 H    0.955
     4   7 N    3.550 --     3 C    1.264     5 C    1.166    25 H    0.923
     5   6 C    3.920 --     6 C    1.258    13 N    1.217     4 N    1.166
     6   6 C    3.904 --     5 C    1.258     7 C    1.184     2 N    1.120
     7   6 C    3.906 --     8 O    1.670     6 C    1.184     9 N    0.907
     8   8 O    2.029 --     7 C    1.670     9 N    0.102
     9   7 N    3.684 --    10 C    1.356    11 C    1.189     7 C    0.907
                             8 O    0.102
    10   6 C    3.728 --     9 N    1.356    21 H    0.973    19 H    0.963
                            11 C    0.201
    11   6 C    3.786 --     9 N    1.189    13 N    1.139    12 O    1.087
                            10 C    0.201
    12   8 O    2.135 --    11 C    1.087    20 H    0.857
    13   7 N    3.591 --     5 C    1.217    11 C    1.139    14 C    0.974
    14   6 C    3.928 --    13 N    0.974    22 H    0.971    23 H    0.970
                            24 H    0.969
    15   1 H    0.985 --     1 C    0.961
    16   1 H    0.986 --     1 C    0.963
    17   1 H    0.982 --     1 C    0.962
    18   1 H    0.985 --     3 C    0.955
    19   1 H    0.988 --    10 C    0.963
    20   1 H    0.864 --    12 O    0.857
    21   1 H    0.995 --    10 C    0.973
    22   1 H    0.989 --    14 C    0.971
    23   1 H    0.989 --    14 C    0.970
    24   1 H    0.985 --    14 C    0.969
    25   1 H    0.951 --     4 N    0.923
 ---------------------------------------------------------------------------

molecular dipole:
                 x           y           z       tot (Debye)
 q only:        1.110      -2.506      -0.101
   full:        0.924      -2.877      -0.155       7.691

           -------------------------------------------------
          | TOTAL ENERGY              -72.205917854034 Eh   |
          | GRADIENT NORM               0.003491469104 Eh/α |
          | HOMO-LUMO GAP               0.954609995097 eV   |
           -------------------------------------------------

 * finished run on 2024/06/05 at 19:58:03.130
