   * xtb version 6.6.1 (8d0f1dd) compiled by 'conda@1efc2f54142f' on 2023-08-01
          program call               : xtb xtbopt.xyz --opt crude --input .xc2 --gfn2

   ID    Z sym.   atoms
    1    6 C      1, 3, 5-7, 10, 11, 14
    2    7 N      2, 4, 9, 13
    3    8 O      8, 12
    4    1 H      15-25
########################################################################
[WARNING] Please study the warnings concerning your input carefully
-1- readin_getIntValue: could not parse ''
########################################################################

          :  Hamiltonian                  GFN2-xTB          :
 * total energy  :   -40.3029929 Eh     change       -0.1250555E-11 Eh
 * total energy  :   -42.1230136 Eh     change       -0.1820021E+01 Eh
 * total energy  :   -42.1511931 Eh     change       -0.2817947E-01 Eh
 * total energy  :   -42.1538191 Eh     change       -0.2625958E-02 Eh
 * total energy  :   -42.1545570 Eh     change       -0.7379265E-03 Eh
 * total energy  :   -42.1552534 Eh     change       -0.6963675E-03 Eh
 * total energy  :   -42.1563084 Eh     change       -0.1055062E-02 Eh
 * total energy  :   -42.1575124 Eh     change       -0.1203936E-02 Eh
 * total energy  :   -42.1583532 Eh     change       -0.8408224E-03 Eh
 * total energy  :   -42.1586850 Eh     change       -0.3318417E-03 Eh
 * total energy  :   -42.1588377 Eh     change       -0.1527261E-03 Eh
 * total energy  :   -42.1589902 Eh     change       -0.1524810E-03 Eh
 * total energy  :   -42.1592294 Eh     change       -0.2392215E-03 Eh
 * total energy  :   -42.1594979 Eh     change       -0.2684903E-03 Eh
 * total energy  :   -42.1597196 Eh     change       -0.2216745E-03 Eh
   *** GEOMETRY OPTIMIZATION CONVERGED AFTER 15 ITERATIONS ***

 final structure:
================
25
 xtb: 6.6.1 (8d0f1dd)
C            3.29947276993525        1.11325602767614        0.02045650072556
N            2.31706926055104        0.06313960950675        0.00473100978831
C            2.54537943927365       -1.24714399349540       -0.00627697928937
N            1.37288389813114       -1.92384402597720       -0.01205032569667
C            0.35621564617163       -1.00976312553379       -0.01102157945041
C            0.94529660126254        0.26192032201158        0.00532048678252
C            0.20519794334200        1.46470337211755        0.03533805523721
O            0.60745226434134        2.60593215715118        0.04480144203189
N           -1.24626669214420        1.20777505520827        0.07548162655486
C           -2.01081500502395        2.29780381433491        0.17039041561468
C           -1.75155926918308       -0.04855518944991       -0.02820434038308
O           -3.08314554634763       -0.26734186639959       -0.09359707063992
N           -0.97218743932294       -1.18270632968240       -0.04312487518417
C           -1.55999626563604       -2.50833384256513       -0.05812968416805
H            3.87668976650929        1.08246178329897        0.94529263511473
H            3.98137895732744        1.00813375291559       -0.82339561020845
H            2.78296116910053        2.06989921180567       -0.04501672097343
H            3.51186701476956       -1.70905551217040       -0.00536844272518
H           -1.51084793759981        3.24325689657710        0.19041211859861
H           -3.56252107071799        0.51297085593764       -0.40831218363594
H           -3.07349226268494        2.23209722770476        0.29710963603155
H           -1.30767431335966       -3.03957507257055        0.86065521128247
H           -1.19662200162239       -3.06681578605900       -0.92164688002682
H           -2.64028162303447       -2.41437022759918       -0.12412972130154
H            1.27397621006173       -2.92760657314381       -0.03854310617882

          :  Hamiltonian                  GFN2-xTB          :
         :: total energy             -42.159719610461 Eh    ::
         :: gradient norm              0.007019933139 Eh/a0 ::
         :: HOMO-LUMO gap              0.960253514378 eV    ::
         :: SCC energy               -42.679620348585 Eh    ::
         :: -> dispersion             -0.022958248913 Eh    ::
         :: repulsion energy           0.519793692143 Eh    ::

    * Orbital Energies and Occupations

         #    Occupation            Energy/Eh            Energy/eV
      -------------------------------------------------------------
         1        2.0000           -0.8931844             -24.3048
       ...           ...                  ...                  ...
        25        2.0000           -0.6673341             -18.1591
        26        2.0000           -0.6615157             -18.0008
        27        2.0000           -0.6490568             -17.6617
        28        2.0000           -0.6373863             -17.3442
        29        2.0000           -0.6279368             -17.0870
        30        2.0000           -0.6213321             -16.9073
        31        2.0000           -0.6174012             -16.8003
        32        2.0000           -0.6172264             -16.7956
        33        2.0000           -0.6002245             -16.3329
        34        2.0000           -0.5885500             -16.0153
        35        2.0000           -0.5533122             -15.0564
        36        2.0000           -0.5504761             -14.9792
        37        1.8044           -0.4565324             -12.4229 (HOMO)
        38        0.1933           -0.4212437             -11.4626 (LUMO)
        39        0.0019           -0.3839765             -10.4485
        40        0.0004           -0.3706654             -10.0863
        41                         -0.2741394              -7.4597
        42                         -0.2018703              -5.4932
        43                         -0.1891211              -5.1462
        44                         -0.1583340              -4.3085
        45                         -0.1235250              -3.3613
        46                         -0.1031069              -2.8057
        47                         -0.0498364              -1.3561
        48                         -0.0354897              -0.9657
       ...                                ...                  ...
        67                          0.5597595              15.2318
      -------------------------------------------------------------
                  HL-Gap            0.0352887 Eh            0.9603 eV

     #   Z          covCN         q      C6AA      α(0)
     1   6 C        3.691    -0.092    22.460     6.782
     2   7 N        2.823     0.069    20.043     6.649
     3   6 C        3.034     0.047    26.915     8.509
     4   7 N        2.780    -0.065    22.491     7.044
     5   6 C        3.054     0.083    26.096     8.378
     6   6 C        3.088    -0.033    28.722     8.785
     7   6 C        2.777     0.245    22.890     7.836
     8   8 O        0.857    -0.372    21.132     6.163
     9   7 N        2.736    -0.012    21.478     6.883
    10   6 C        2.812    -0.101    30.531     9.053
    11   6 C        2.756     0.193    23.878     8.002
    12   8 O        1.659    -0.362    20.133     6.057
    13   7 N        2.737    -0.006    21.379     6.867
    14   6 C        3.698    -0.078    22.161     6.733
    15   1 H        0.924     0.101     1.775     2.083
    16   1 H        0.925     0.100     1.789     2.092
    17   1 H        0.925     0.133     1.515     1.925
    18   1 H        0.926     0.116     1.642     2.004
    19   1 H        0.927     0.107     1.721     2.051
    20   1 H        0.805     0.347     0.596     1.212
    21   1 H        0.926     0.062     2.180     2.309
    22   1 H        0.924     0.088     1.894     2.152
    23   1 H        0.924     0.086     1.921     2.168
    24   1 H        0.925     0.124     1.580     1.966
    25   1 H        0.860     0.220     1.008     1.572

Wiberg/Mayer (AO) data.
largest (>0.10) Wiberg bond orders for each atom

     #   Z sym  total        # sym  WBO       # sym  WBO       # sym  WBO
 ---------------------------------------------------------------------------
     1   6 C    3.922 --     2 N    0.988    16 H    0.963    17 H    0.962
                            15 H    0.960
     2   7 N    3.637 --     3 C    1.377     6 C    1.121     1 C    0.988
     3   6 C    3.811 --     2 N    1.377     4 N    1.264    18 H    0.955
     4   7 N    3.551 --     3 C    1.264     5 C    1.168    25 H    0.923
     5   6 C    3.922 --     6 C    1.262    13 N    1.216     4 N    1.168
     6   6 C    3.905 --     5 C    1.262     7 C    1.180     2 N    1.121
     7   6 C    3.906 --     8 O    1.669     6 C    1.180     9 N    0.914
     8   8 O    2.027 --     7 C    1.669     9 N    0.102
     9   7 N    3.680 --    10 C    1.336    11 C    1.200     7 C    0.914
                             8 O    0.102
    10   6 C    3.716 --     9 N    1.336    21 H    0.965    19 H    0.963
                            11 C    0.202
    11   6 C    3.802 --     9 N    1.200    13 N    1.143    12 O    1.093
                            10 C    0.202
    12   8 O    2.118 --    11 C    1.093    20 H    0.841
    13   7 N    3.592 --     5 C    1.216    11 C    1.143    14 C    0.973
    14   6 C    3.927 --    13 N    0.973    23 H    0.971    22 H    0.969
                            24 H    0.967
    15   1 H    0.985 --     1 C    0.960
    16   1 H    0.986 --     1 C    0.963
    17   1 H    0.982 --     1 C    0.962
    18   1 H    0.985 --     3 C    0.955
    19   1 H    0.988 --    10 C    0.963
    20   1 H    0.878 --    12 O    0.841
    21   1 H    0.995 --    10 C    0.965
    22   1 H    0.989 --    14 C    0.969
    23   1 H    0.990 --    14 C    0.971
    24   1 H    0.984 --    14 C    0.967
    25   1 H    0.951 --     4 N    0.923
 ---------------------------------------------------------------------------

molecular dipole:
                 x           y           z       tot (Debye)
 q only:        1.033      -2.306      -0.222
   full:        0.990      -2.655      -0.264       7.234

           -------------------------------------------------
          | TOTAL ENERGY              -42.159719610461 Eh   |
          | GRADIENT NORM               0.007019933139 Eh/α |
          | HOMO-LUMO GAP               0.960253514378 eV   |
           -------------------------------------------------

 * finished run on 2024/06/05 at 19:58:03.928
