   * xtb version 6.6.1 (8d0f1dd) compiled by 'conda@1efc2f54142f' on 2023-08-01
          program call               : xtb struc.xyz --opt loose --input .xc1 --gfn2

   ID    Z sym.   atoms
    1    7 N      1, 17
    2    6 C      2-6, 8, 9, 11-16, 18-23, 25, 26, 28-33
    3    8 O      7, 10, 24, 27
    4    1 H      34-72
constraining bond 31 70 to    4.1400000 Å, actual value:    2.1811325 Å

          :  Hamiltonian                  GFN2-xTB          :
 * total energy  :   -98.7189934 Eh     change       -0.4035485E-08 Eh
 * total energy  :   -98.9530941 Eh     change       -0.2341007E+00 Eh
 * total energy  :   -99.0861299 Eh     change       -0.1330358E+00 Eh
 * total energy  :   -99.1526553 Eh     change       -0.6652538E-01 Eh
 * total energy  :   -99.1790836 Eh     change       -0.2642838E-01 Eh
 * total energy  :   -99.1875457 Eh     change       -0.8462039E-02 Eh
 * total energy  :   -99.1909932 Eh     change       -0.3447506E-02 Eh
 * total energy  :   -99.1950949 Eh     change       -0.4101716E-02 Eh
 * total energy  :   -99.2028066 Eh     change       -0.7711689E-02 Eh
 * total energy  :   -99.2144785 Eh     change       -0.1167189E-01 Eh
 * total energy  :   -99.4369945 Eh     change       -0.2557825E-03 Eh
 * total energy  :   -99.4372089 Eh     change       -0.2144213E-03 Eh
 * total energy  :   -99.4373216 Eh     change       -0.1127157E-03 Eh
 * total energy  :   -99.4373265 Eh     change       -0.4869868E-05 Eh
 * total energy  :   -99.4374986 Eh     change       -0.1720839E-03 Eh
 * total energy  :   -99.4375587 Eh     change       -0.6009167E-04 Eh
 * total energy  :   -99.4376247 Eh     change       -0.6606048E-04 Eh
 * total energy  :   -99.4376779 Eh     change       -0.5311507E-04 Eh
 * total energy  :   -99.4377080 Eh     change       -0.3012432E-04 Eh
   *** GEOMETRY OPTIMIZATION CONVERGED AFTER 114 ITERATIONS ***

 final structure:
================
72
 xtb: 6.6.1 (8d0f1dd)
N           -2.38963867905556        3.47259014739915        1.81808141058089
C           -2.23611648159836        2.19809577135016        1.47253525713459
C           -3.18705493985934        1.81786617536868        0.38832096042522
C           -3.73282460462141        0.40795659167746        0.48526112992737
C           -4.59257785297180       -0.06100096934452       -0.51134870243136
C           -5.10191207721791       -1.34759023537136       -0.48260442415993
O           -5.93221892868134       -1.87819565040734       -1.40534590229696
C           -6.34152274038609       -1.09115576076021       -2.49775997844038
C           -4.74599451734557       -2.21649025313830        0.58319933772280
O           -5.26901096562840       -3.45745037295256        0.52425022245946
C           -4.95817806698260       -4.37726599793707        1.54547906016000
C           -3.91425055956263       -1.73558674625631        1.58046671277344
C           -3.41880092606534       -0.43948464445070        1.53362392474553
C           -2.54072857162927        2.04837427336345       -1.01698594005761
C           -1.55058028435563        0.97087554226476       -1.44534732349601
C           -0.21731295160170        1.14800688092517       -0.72600155760547
N            0.71158180133588        0.07015681347754       -0.95638111578528
C            2.08295573806225        0.34022558965100       -0.57871949107975
C            3.06203255654398       -0.20678631102562       -1.63448128868398
C            4.47333600332470       -0.01991315300826       -1.16449186098212
C            5.11785842660764        1.19790797896559       -1.32295437448427
C            6.39681952507719        1.39577132263545       -0.82778760450064
C            7.06168360007874        0.37583603626333       -0.16119334849159
O            8.29751630729976        0.46049994477979        0.37186381161858
C            9.00423540498110        1.67396731667300        0.27149074464629
C            6.41703520759928       -0.88184361291748       -0.00719225765064
O            7.13744727541314       -1.82325688678203        0.63747533164459
C            6.59841394586760       -3.11437079636199        0.78922045991202
C            5.13460491125383       -1.05239864064149       -0.50519709593175
C            0.24545074614624       -1.23798216540177       -0.56366704655421
C           -4.27718158192469        2.91531033080995        0.58101391200406
C           -5.35128777946666        2.50001604124910        1.58148546682276
C           -3.48071202330869        4.11182545212792        1.12668210228093
H           -4.87091688673478        0.59536187397882       -1.31859689930154
H           -6.90373773408547       -0.21041428052001       -2.17154241071228
H           -6.99139498952914       -1.73154937153663       -3.09072785548721
H           -5.48936139534739       -0.77681687156245       -3.10874326213300
H           -5.31814892500406       -4.03186268569537        2.51947826335244
H           -5.47309153243125       -5.29738417197214        1.27694918989006
H           -3.88162869744846       -4.56672270695586        1.59973579645737
H           -3.64239998511324       -2.36435958925424        2.41246612537257
H           -2.79155121729485       -0.11036274487982        2.34565998053179
H           -3.34702888873403        2.08977374290706       -1.74812140543670
H           -2.04364334951373        3.02002363883836       -1.02293382849646
H           -1.97567299007404       -0.00687012191112       -1.22609027277003
H           -1.38732512523431        1.03521498110181       -2.52169187727672
H           -1.53316568208274        1.57973631041047        1.99340228772363
H            0.25204316466531        2.07096640723905       -1.08050025781202
H            2.32328577457744       -0.10259578395684        0.39833380372461
H            2.23263252452805        1.41773180319441       -0.49780520047321
H            2.89424074254064        0.32867695131102       -2.56935284530628
H            2.85749929710882       -1.26323035988424       -1.80667333606793
H            4.62209871850344        2.00324731936038       -1.84308167226641
H            6.87202762645189        2.35280824254161       -0.96833440128083
H            8.47733732448591        2.48723444522451        0.78121433699110
H            9.18082694836073        1.95133785885751       -0.77225736951924
H            9.95880909419024        1.49818513970940        0.76439318083486
H            7.35866145355281       -3.68897594464991        1.31505670798038
H            5.68014596704156       -3.10025229288013        1.38524319734844
H            6.39746579118565       -3.58083271709816       -0.18036818783379
H            4.63390965217157       -2.00096430863620       -0.39069670696689
H           -0.51238538656507       -1.59227361274344       -1.26038307056683
H           -0.18112697407866       -1.24136421468477        0.44880055444143
H            1.07579634036068       -1.93838022220801       -0.58749470040228
H           -4.75449096554453        3.16511814565299       -0.36630368812010
H           -4.90792460008038        2.24623922977364        2.54129955886550
H           -5.90029787171227        1.63473846940178        1.22210315363344
H           -6.05645639276108        3.31450206848159        1.72693663947178
H           -4.06706378930997        4.72421807271533        1.81368882706873
H           -0.45334218918957        1.28160171099367        0.34548254124521
H           -3.10424611055152        4.75820073067776        0.32575237491856
H           -1.82693006161808        3.94992436892311        2.50397703876001

          :  Hamiltonian                  GFN2-xTB          :
         :: total energy             -99.437707990246 Eh    ::
         :: gradient norm              0.002118458255 Eh/a0 ::
         :: HOMO-LUMO gap              1.426498558225 eV    ::
         :: SCC energy              -100.789476576982 Eh    ::
         :: -> dispersion             -0.073239519375 Eh    ::
         :: repulsion energy           1.350563123868 Eh    ::

    * Orbital Energies and Occupations

         #    Occupation            Energy/Eh            Energy/eV
      -------------------------------------------------------------
         1        2.0000           -0.8024884             -21.8368
       ...           ...                  ...                  ...
        78        1.9991           -0.5305902             -14.4381
        79        1.9988           -0.5262599             -14.3203
        80        1.9987           -0.5238398             -14.2544
        81        1.9985           -0.5218416             -14.2000
        82        1.9982           -0.5188068             -14.1175
        83        1.9977           -0.5155428             -14.0286
        84        1.9975           -0.5136586             -13.9774
        85        1.9961           -0.5070678             -13.7980
        86        1.9846           -0.4850814             -13.1997
        87        1.9729           -0.4760392             -12.9537
        88        1.8969           -0.4542498             -12.3608
        89        1.8694           -0.4502685             -12.2524
        90        1.7970           -0.4426647             -12.0455 (HOMO)
        91        0.4884           -0.3902418             -10.6190 (LUMO)
        92        0.0045           -0.3115001              -8.4764
        93        0.0035           -0.3078381              -8.3767
        94        0.0021           -0.2993743              -8.1464
        95        0.0018           -0.2970750              -8.0838
        96        0.0000           -0.1856084              -5.0507
        97        0.0000           -0.1744178              -4.7462
        98                         -0.1168588              -3.1799
        99                         -0.0913626              -2.4861
       100                         -0.0746480              -2.0313
       101                         -0.0583163              -1.5869
       ...                                ...                  ...
       171                          0.5871477              15.9771
      -------------------------------------------------------------
                  HL-Gap            0.0524229 Eh            1.4265 eV

     #   Z          covCN         q      C6AA      α(0)
     1   7 N        2.714    -0.074    22.687     7.074
     2   6 C        2.904     0.015    27.678     8.626
     3   6 C        3.931     0.015    20.265     6.397
     4   6 C        2.968     0.000    28.020     8.683
     5   6 C        2.922    -0.079    29.984     8.980
     6   6 C        2.863     0.130    25.155     8.221
     7   8 O        1.706    -0.231    17.832     5.701
     8   6 C        3.644     0.028    20.440     6.498
     9   6 C        2.865     0.131    25.136     8.218
    10   8 O        1.706    -0.229    17.793     5.695
    11   6 C        3.646     0.027    20.453     6.499
    12   6 C        2.915    -0.071    29.780     8.949
    13   6 C        2.922    -0.052    29.280     8.874
    14   6 C        3.807    -0.066    21.753     6.639
    15   6 C        3.802    -0.072    21.867     6.658
    16   6 C        3.752    -0.001    20.662     6.482
    17   7 N        2.727    -0.124    23.688     7.229
    18   6 C        3.755     0.003    20.586     6.469
    19   6 C        3.809    -0.072    21.875     6.658
    20   6 C        2.969     0.007    27.855     8.657
    21   6 C        2.922    -0.047    29.166     8.856
    22   6 C        2.913    -0.067    29.675     8.933
    23   6 C        2.865     0.132    25.119     8.215
    24   8 O        1.706    -0.225    17.726     5.684
    25   6 C        3.645     0.027    20.460     6.501
    26   6 C        2.863     0.132    25.100     8.212
    27   8 O        1.706    -0.226    17.756     5.689
    28   6 C        3.645     0.028    20.437     6.497
    29   6 C        2.920    -0.077    29.927     8.971
    30   6 C        3.703    -0.045    21.536     6.635
    31   6 C        3.902    -0.022    20.906     6.499
    32   6 C        3.754    -0.117    22.791     6.807
    33   6 C        3.794    -0.013    20.821     6.498
    34   1 H        0.926     0.050     2.321     2.383
    35   1 H        0.924     0.049     2.328     2.386
    36   1 H        0.925     0.080     1.976     2.198
    37   1 H        0.924     0.048     2.343     2.394
    38   1 H        0.924     0.053     2.285     2.364
    39   1 H        0.925     0.080     1.978     2.199
    40   1 H        0.924     0.050     2.322     2.383
    41   1 H        0.926     0.053     2.283     2.363
    42   1 H        0.926     0.036     2.499     2.472
    43   1 H        0.925     0.057     2.232     2.336
    44   1 H        0.924     0.043     2.408     2.426
    45   1 H        0.925     0.055     2.258     2.350
    46   1 H        0.924     0.058     2.226     2.333
    47   1 H        0.926     0.066     2.128     2.281
    48   1 H        0.924     0.045     2.389     2.417
    49   1 H        0.923     0.032     2.562     2.503
    50   1 H        0.924     0.043     2.408     2.427
    51   1 H        0.924     0.059     2.208     2.324
    52   1 H        0.925     0.053     2.277     2.360
    53   1 H        0.926     0.047     2.354     2.399
    54   1 H        0.926     0.056     2.250     2.346
    55   1 H        0.924     0.052     2.294     2.369
    56   1 H        0.924     0.055     2.261     2.352
    57   1 H        0.925     0.080     1.979     2.200
    58   1 H        0.925     0.079     1.984     2.203
    59   1 H        0.924     0.049     2.337     2.391
    60   1 H        0.924     0.053     2.283     2.363
    61   1 H        0.926     0.049     2.330     2.387
    62   1 H        0.925     0.054     2.271     2.357
    63   1 H        0.923     0.030     2.589     2.517
    64   1 H        0.925     0.057     2.229     2.335
    65   1 H        0.925     0.056     2.245     2.343
    66   1 H        0.925     0.046     2.370     2.407
    67   1 H        0.925     0.056     2.244     2.343
    68   1 H        0.925     0.055     2.261     2.351
    69   1 H        0.924     0.075     2.029     2.228
    70   1 H        0.922     0.024     2.669     2.555
    71   1 H        0.924     0.066     2.127     2.281
    72   1 H        0.860     0.185     1.184     1.704

Wiberg/Mayer (AO) data.
largest (>0.10) Wiberg bond orders for each atom

     #   Z sym  total        # sym  WBO       # sym  WBO       # sym  WBO
 ---------------------------------------------------------------------------
     1   7 N    3.385 --     2 C    1.389    33 C    0.995    72 H    0.938
     2   6 C    3.502 --     1 N    1.389     3 C    1.029    47 H    0.954
     3   6 C    3.984 --     2 C    1.029     4 C    0.982    31 C    0.942
                            14 C    0.931
     4   6 C    3.949 --    13 C    1.424     5 C    1.364     3 C    0.982
     5   6 C    3.965 --     6 C    1.406     4 C    1.364    34 H    0.959
     6   6 C    3.911 --     5 C    1.406     9 C    1.224     7 O    1.097
     7   8 O    2.256 --     6 C    1.097     8 C    0.979
     8   6 C    3.934 --     7 O    0.979    36 H    0.977    37 H    0.974
                            35 H    0.974
     9   6 C    3.909 --    12 C    1.395     6 C    1.224    10 O    1.102
    10   8 O    2.258 --     9 C    1.102    11 C    0.978
    11   6 C    3.932 --    10 O    0.978    39 H    0.977    40 H    0.974
                            38 H    0.974
    12   6 C    3.966 --    13 C    1.404     9 C    1.395    41 H    0.964
    13   6 C    3.961 --     4 C    1.424    12 C    1.404    42 H    0.964
    14   6 C    3.960 --    15 C    1.010    44 H    0.974    43 H    0.966
                             3 C    0.931
    15   6 C    3.988 --    14 C    1.010    16 C    1.001    46 H    0.970
                            45 H    0.966
    16   6 C    3.971 --    17 N    1.011    15 C    1.001    48 H    0.969
                            70 H    0.933
    17   7 N    3.112 --    30 C    1.016    16 C    1.011    18 C    1.004
    18   6 C    3.969 --    17 N    1.004    19 C    0.972    50 H    0.972
                            49 H    0.963
    19   6 C    3.980 --    20 C    1.014    18 C    0.972    51 H    0.969
                            52 H    0.969
    20   6 C    3.937 --    21 C    1.399    29 C    1.384    19 C    1.014
    21   6 C    3.939 --    22 C    1.422    20 C    1.399    53 H    0.968
    22   6 C    3.957 --    21 C    1.422    23 C    1.380    54 H    0.963
    23   6 C    3.884 --    22 C    1.380    26 C    1.221    24 O    1.104
    24   8 O    2.244 --    23 C    1.104    25 C    0.978
    25   6 C    3.930 --    24 O    0.978    57 H    0.977    55 H    0.973
                            56 H    0.972
    26   6 C    3.890 --    29 C    1.392    23 C    1.221    27 O    1.100
    27   8 O    2.246 --    26 C    1.100    28 C    0.979
    28   6 C    3.933 --    27 O    0.979    58 H    0.977    60 H    0.973
                            59 H    0.973
    29   6 C    3.957 --    26 C    1.392    20 C    1.384    61 H    0.962
    30   6 C    3.974 --    17 N    1.016    64 H    0.979    62 H    0.974
                            63 H    0.968
    31   6 C    3.977 --    32 C    1.013    33 C    0.988    65 H    0.967
                             3 C    0.942
    32   6 C    3.990 --    31 C    1.013    66 H    0.986    68 H    0.982
                            67 H    0.980
    33   6 C    3.957 --     1 N    0.995    31 C    0.988    69 H    0.963
                            71 H    0.955
    34   1 H    0.996 --     5 C    0.959
    35   1 H    0.994 --     8 C    0.974
    36   1 H    0.993 --     8 C    0.977
    37   1 H    0.994 --     8 C    0.974
    38   1 H    0.994 --    11 C    0.974
    39   1 H    0.993 --    11 C    0.977
    40   1 H    0.994 --    11 C    0.974
    41   1 H    0.996 --    12 C    0.964
    42   1 H    0.998 --    13 C    0.964
    43   1 H    0.994 --    14 C    0.966
    44   1 H    0.997 --    14 C    0.974
    45   1 H    0.996 --    15 C    0.966
    46   1 H    0.993 --    15 C    0.970
    47   1 H    0.995 --     2 C    0.954
    48   1 H    0.996 --    16 C    0.969
    49   1 H    0.986 --    18 C    0.963
    50   1 H    0.997 --    18 C    0.972
    51   1 H    0.994 --    19 C    0.969
    52   1 H    0.996 --    19 C    0.969
    53   1 H    0.997 --    21 C    0.968
    54   1 H    0.995 --    22 C    0.963
    55   1 H    0.991 --    25 C    0.973
    56   1 H    0.991 --    25 C    0.972
    57   1 H    0.993 --    25 C    0.977
    58   1 H    0.993 --    28 C    0.977
    59   1 H    0.993 --    28 C    0.973
    60   1 H    0.992 --    28 C    0.973
    61   1 H    0.996 --    29 C    0.962
    62   1 H    0.992 --    30 C    0.974
    63   1 H    0.984 --    30 C    0.968
    64   1 H    0.996 --    30 C    0.979
    65   1 H    0.997 --    31 C    0.967
    66   1 H    0.998 --    32 C    0.986
    67   1 H    0.996 --    32 C    0.980
    68   1 H    0.996 --    32 C    0.982
    69   1 H    0.989 --    33 C    0.963
    70   1 H    0.983 --    16 C    0.933
    71   1 H    0.984 --    33 C    0.955
    72   1 H    0.965 --     1 N    0.938
 ---------------------------------------------------------------------------

molecular dipole:
                 x           y           z       tot (Debye)
 q only:       -1.102       2.098       0.695
   full:       -0.981       2.406       1.098       7.170

           -------------------------------------------------
          | TOTAL ENERGY              -99.437707990246 Eh   |
          | GRADIENT NORM               0.002118458255 Eh/α |
          | HOMO-LUMO GAP               1.426498558225 eV   |
           -------------------------------------------------

 * finished run on 2024/04/06 at 11:15:06.809
