   * xtb version 6.6.1 (8d0f1dd) compiled by 'conda@1efc2f54142f' on 2023-08-01
          program call               : xtb xtbopt.xyz --opt crude --input .xc2 --gfn2

   ID    Z sym.   atoms
    1    7 N      1, 17
    2    6 C      2-6, 8, 9, 11-16, 18-23, 25, 26, 28-33
    3    8 O      7, 10, 24, 27
    4    1 H      34-72
########################################################################
[WARNING] Please study the warnings concerning your input carefully
-1- readin_getIntValue: could not parse ''
########################################################################

          :  Hamiltonian                  GFN2-xTB          :
 * total energy  :   -99.4378185 Eh     change        0.5115908E-12 Eh
 * total energy  :   -99.4383047 Eh     change       -0.4862090E-03 Eh
   *** GEOMETRY OPTIMIZATION CONVERGED AFTER 2 ITERATIONS ***

 final structure:
================
72
 xtb: 6.6.1 (8d0f1dd)
N           -2.40109235285049        3.47782866113287        1.81949315452293
C           -2.24876454867749        2.20294286130591        1.47640227748046
C           -3.19825914603825        1.82408016437547        0.39059742969322
C           -3.73828488213913        0.41154001900704        0.48654566776964
C           -4.59566220231053       -0.05921112002371       -0.51120235424684
C           -5.10265076062949       -1.34669853503914       -0.48297337549822
O           -5.93204412124768       -1.87831914829296       -1.40583220741424
C           -6.34212945314715       -1.09119633252184       -2.49805821141724
C           -4.74618727550165       -2.21530392107061        0.58295078642885
O           -5.26881470045817       -3.45633371239714        0.52349360037645
C           -4.95995011837939       -4.37645877221227        1.54475583315492
C           -3.91489429259135       -1.73367529652127        1.58018032517753
C           -3.42170156235500       -0.43654098796075        1.53382681812717
C           -2.54000530003557        2.04966141063071       -1.01050816768850
C           -1.54625029598268        0.97263435616406       -1.43545018581830
C           -0.20253255556328        1.14226943426545       -0.73056318635984
N            0.71979129267993        0.06279839330723       -0.96985410737799
C            2.08870983293509        0.33405493758956       -0.58574647244911
C            3.06859431661118       -0.21072711170090       -1.64031536920231
C            4.47799999524402       -0.02127888615412       -1.16665434000385
C            5.12098845650206        1.19759391320503       -1.32294704236137
C            6.39932188637379        1.39607568485167       -0.82664851563844
C            7.06459259530949        0.37602786909903       -0.16066182987397
O            8.30057465485914        0.46053424031967        0.37142649712604
C            9.00745861076764        1.67393472413522        0.26992616712913
C            6.42028773380696       -0.88184557184757       -0.00677516123109
O            7.14029849960834       -1.82330611572143        0.63814853828601
C            6.60032677219300       -3.11406318664509        0.79049704945029
C            5.13855136514614       -1.05305302496206       -0.50592069268150
C            0.24877808890355       -1.24178268870838       -0.56815627805682
C           -4.29366271348606        2.92144732968226        0.58211369579266
C           -5.36279399517065        2.50100808611803        1.58483916014544
C           -3.49279311601748        4.11606630300511        1.12744672003047
H           -4.87467362842425        0.59685292698281       -1.31841556745112
H           -6.90435594207812       -0.21065275592012       -2.17124818843424
H           -6.99224288785725       -1.73161156316569       -3.09084158097368
H           -5.49017427660362       -0.77664511089859       -3.10941938542203
H           -5.32012984029005       -4.03079640139493        2.51850825867492
H           -5.47598192494120       -5.29591720610351        1.27579181417795
H           -3.88369223018514       -4.56758153669215        1.59957979113865
H           -3.64236307880813       -2.36250758380155        2.41192617189259
H           -2.79395318283973       -0.10729913614224        2.34544294624268
H           -3.34324929371910        2.08826311067209       -1.74531811248154
H           -2.04430531045191        3.02187025387369       -1.01816378436630
H           -1.97159832178861       -0.00517318634478       -1.21676414973002
H           -1.38835219957391        1.03659278351997       -2.51292940247378
H           -1.54694033282553        1.58390158683719        1.99804515119892
H            0.26456877290990        2.06516896700156       -1.08557256534022
H            2.32593280535033       -0.10981474931273        0.39225973884142
H            2.23691979766180        1.41228005609808       -0.50254828964683
H            2.90113013974616        0.32486997437741       -2.57496018109636
H            2.86481343777020       -1.26737287878137       -1.81189787087754
H            4.62483902683978        2.00316493298665       -1.84238760143035
H            6.87376933142161        2.35365813077307       -0.96629532824427
H            8.48041331564718        2.48763485897144        0.77832598887609
H            9.18435616197278        1.94989616036025       -0.77400597076859
H            9.96161871238507        1.49849478463023        0.76325035906236
H            7.36099364406618       -3.68940649966119        1.31473441878315
H            5.68319601000526       -3.09913040371740        1.38818235581809
H            6.39712963245201       -3.58013529162795       -0.17875333867545
H            4.63801141453580       -2.00181327540096       -0.39178295974014
H           -0.51295476940308       -1.59630024297546       -1.26075619092492
H           -0.17668295325275       -1.23692956173994        0.44575612851430
H            1.07569381884997       -1.94628402966992       -0.59134836036191
H           -4.77027661609721        3.17046852161631       -0.36576108566840
H           -4.91454161096341        2.24643161231001        2.54242244704383
H           -5.90934253372880        1.63445054117848        1.22495269797649
H           -6.06928201912431        3.31366103438176        1.73347142017115
H           -4.07721176499922        4.72944819328176        1.81493597962279
H           -0.39995091380825        1.26478863601822        0.34827443245487
H           -3.11498400232900        4.76143693880269        0.32631538495233
H           -1.83743149887832        3.95547295474224        2.50388304790179

          :  Hamiltonian                  GFN2-xTB          :
         :: total energy             -99.438304731934 Eh    ::
         :: gradient norm              0.003883519381 Eh/a0 ::
         :: HOMO-LUMO gap              1.425119369657 eV    ::
         :: SCC energy              -100.789867960386 Eh    ::
         :: -> dispersion             -0.073169342942 Eh    ::
         :: repulsion energy           1.350470237273 Eh    ::

    * Orbital Energies and Occupations

         #    Occupation            Energy/Eh            Energy/eV
      -------------------------------------------------------------
         1        2.0000           -0.8024912             -21.8369
       ...           ...                  ...                  ...
        78        1.9991           -0.5305532             -14.4371
        79        1.9989           -0.5263033             -14.3214
        80        1.9987           -0.5237087             -14.2508
        81        1.9985           -0.5218501             -14.2003
        82        1.9982           -0.5187384             -14.1156
        83        1.9977           -0.5154901             -14.0272
        84        1.9974           -0.5134873             -13.9727
        85        1.9961           -0.5070123             -13.7965
        86        1.9846           -0.4850748             -13.1996
        87        1.9729           -0.4759808             -12.9521
        88        1.8969           -0.4542112             -12.3597
        89        1.8693           -0.4502301             -12.2514
        90        1.7967           -0.4426091             -12.0440 (HOMO)
        91        0.4889           -0.3902369             -10.6189 (LUMO)
        92        0.0045           -0.3114476              -8.4749
        93        0.0035           -0.3078266              -8.3764
        94        0.0021           -0.2992536              -8.1431
        95        0.0018           -0.2969527              -8.0805
        96        0.0000           -0.1855867              -5.0501
        97        0.0000           -0.1742214              -4.7408
        98                         -0.1171354              -3.1874
        99                         -0.0914721              -2.4891
       100                         -0.0752747              -2.0483
       101                         -0.0586706              -1.5965
       ...                                ...                  ...
       171                          0.5874949              15.9866
      -------------------------------------------------------------
                  HL-Gap            0.0523722 Eh            1.4251 eV

     #   Z          covCN         q      C6AA      α(0)
     1   7 N        2.713    -0.074    22.679     7.073
     2   6 C        2.903     0.015    27.672     8.625
     3   6 C        3.931     0.014    20.272     6.398
     4   6 C        2.968     0.000    28.019     8.683
     5   6 C        2.922    -0.079    29.985     8.980
     6   6 C        2.863     0.130    25.155     8.221
     7   8 O        1.706    -0.231    17.832     5.701
     8   6 C        3.644     0.028    20.440     6.498
     9   6 C        2.865     0.131    25.136     8.218
    10   8 O        1.706    -0.229    17.793     5.695
    11   6 C        3.646     0.027    20.452     6.499
    12   6 C        2.915    -0.071    29.780     8.949
    13   6 C        2.922    -0.052    29.280     8.874
    14   6 C        3.806    -0.066    21.752     6.639
    15   6 C        3.801    -0.071    21.867     6.658
    16   6 C        3.754     0.000    20.631     6.477
    17   7 N        2.727    -0.125    23.721     7.234
    18   6 C        3.757     0.003    20.575     6.467
    19   6 C        3.809    -0.072    21.876     6.658
    20   6 C        2.969     0.007    27.853     8.657
    21   6 C        2.922    -0.047    29.166     8.856
    22   6 C        2.913    -0.067    29.675     8.933
    23   6 C        2.865     0.132    25.118     8.215
    24   8 O        1.706    -0.225    17.725     5.684
    25   6 C        3.646     0.027    20.461     6.501
    26   6 C        2.863     0.132    25.100     8.212
    27   8 O        1.706    -0.226    17.756     5.689
    28   6 C        3.645     0.028    20.437     6.497
    29   6 C        2.920    -0.077    29.928     8.971
    30   6 C        3.704    -0.045    21.530     6.634
    31   6 C        3.898    -0.022    20.907     6.500
    32   6 C        3.754    -0.117    22.789     6.807
    33   6 C        3.795    -0.013    20.822     6.498
    34   1 H        0.926     0.050     2.322     2.383
    35   1 H        0.924     0.049     2.328     2.386
    36   1 H        0.925     0.080     1.976     2.198
    37   1 H        0.924     0.048     2.342     2.393
    38   1 H        0.924     0.053     2.285     2.364
    39   1 H        0.925     0.080     1.978     2.200
    40   1 H        0.924     0.050     2.322     2.383
    41   1 H        0.926     0.053     2.282     2.363
    42   1 H        0.926     0.036     2.499     2.472
    43   1 H        0.925     0.057     2.230     2.335
    44   1 H        0.924     0.043     2.407     2.426
    45   1 H        0.925     0.055     2.258     2.350
    46   1 H        0.924     0.058     2.222     2.331
    47   1 H        0.926     0.066     2.129     2.282
    48   1 H        0.924     0.044     2.391     2.418
    49   1 H        0.923     0.031     2.567     2.506
    50   1 H        0.924     0.043     2.414     2.430
    51   1 H        0.925     0.059     2.206     2.323
    52   1 H        0.925     0.054     2.276     2.359
    53   1 H        0.926     0.047     2.354     2.399
    54   1 H        0.926     0.056     2.250     2.346
    55   1 H        0.924     0.052     2.294     2.368
    56   1 H        0.924     0.055     2.260     2.351
    57   1 H        0.925     0.080     1.979     2.200
    58   1 H        0.925     0.080     1.984     2.203
    59   1 H        0.924     0.049     2.336     2.390
    60   1 H        0.924     0.053     2.283     2.363
    61   1 H        0.926     0.049     2.330     2.387
    62   1 H        0.925     0.054     2.273     2.358
    63   1 H        0.923     0.029     2.596     2.520
    64   1 H        0.925     0.057     2.231     2.336
    65   1 H        0.925     0.056     2.243     2.342
    66   1 H        0.925     0.046     2.368     2.407
    67   1 H        0.925     0.056     2.242     2.341
    68   1 H        0.925     0.055     2.257     2.350
    69   1 H        0.924     0.075     2.029     2.227
    70   1 H        0.923     0.022     2.703     2.571
    71   1 H        0.924     0.067     2.124     2.279
    72   1 H        0.860     0.186     1.182     1.703

Wiberg/Mayer (AO) data.
largest (>0.10) Wiberg bond orders for each atom

     #   Z sym  total        # sym  WBO       # sym  WBO       # sym  WBO
 ---------------------------------------------------------------------------
     1   7 N    3.386 --     2 C    1.391    33 C    0.994    72 H    0.937
     2   6 C    3.500 --     1 N    1.391     3 C    1.029    47 H    0.955
     3   6 C    3.984 --     2 C    1.029     4 C    0.982    31 C    0.941
                            14 C    0.931
     4   6 C    3.949 --    13 C    1.424     5 C    1.365     3 C    0.982
     5   6 C    3.965 --     6 C    1.406     4 C    1.365    34 H    0.959
     6   6 C    3.911 --     5 C    1.406     9 C    1.224     7 O    1.097
     7   8 O    2.256 --     6 C    1.097     8 C    0.979
     8   6 C    3.934 --     7 O    0.979    36 H    0.977    37 H    0.974
                            35 H    0.974
     9   6 C    3.909 --    12 C    1.395     6 C    1.224    10 O    1.102
    10   8 O    2.258 --     9 C    1.102    11 C    0.978
    11   6 C    3.932 --    10 O    0.978    39 H    0.977    40 H    0.974
                            38 H    0.974
    12   6 C    3.966 --    13 C    1.404     9 C    1.395    41 H    0.964
    13   6 C    3.961 --     4 C    1.424    12 C    1.404    42 H    0.964
    14   6 C    3.960 --    15 C    1.010    44 H    0.974    43 H    0.966
                             3 C    0.931
    15   6 C    3.988 --    14 C    1.010    16 C    1.001    46 H    0.970
                            45 H    0.966
    16   6 C    3.972 --    17 N    1.010    15 C    1.001    48 H    0.969
                            70 H    0.937
    17   7 N    3.109 --    30 C    1.016    16 C    1.010    18 C    1.003
    18   6 C    3.969 --    17 N    1.003    19 C    0.972    50 H    0.972
                            49 H    0.962
    19   6 C    3.980 --    20 C    1.014    18 C    0.972    51 H    0.969
                            52 H    0.969
    20   6 C    3.937 --    21 C    1.398    29 C    1.384    19 C    1.014
    21   6 C    3.939 --    22 C    1.422    20 C    1.398    53 H    0.968
    22   6 C    3.957 --    21 C    1.422    23 C    1.380    54 H    0.963
    23   6 C    3.884 --    22 C    1.380    26 C    1.221    24 O    1.104
    24   8 O    2.244 --    23 C    1.104    25 C    0.978
    25   6 C    3.930 --    24 O    0.978    57 H    0.977    55 H    0.973
                            56 H    0.972
    26   6 C    3.890 --    29 C    1.392    23 C    1.221    27 O    1.100
    27   8 O    2.246 --    26 C    1.100    28 C    0.979
    28   6 C    3.933 --    27 O    0.979    58 H    0.977    60 H    0.973
                            59 H    0.973
    29   6 C    3.957 --    26 C    1.392    20 C    1.384    61 H    0.962
    30   6 C    3.974 --    17 N    1.016    64 H    0.979    62 H    0.975
                            63 H    0.968
    31   6 C    3.977 --    32 C    1.013    33 C    0.989    65 H    0.967
                             3 C    0.941
    32   6 C    3.990 --    31 C    1.013    66 H    0.986    68 H    0.982
                            67 H    0.980
    33   6 C    3.957 --     1 N    0.994    31 C    0.989    69 H    0.963
                            71 H    0.955
    34   1 H    0.996 --     5 C    0.959
    35   1 H    0.994 --     8 C    0.974
    36   1 H    0.993 --     8 C    0.977
    37   1 H    0.994 --     8 C    0.974
    38   1 H    0.994 --    11 C    0.974
    39   1 H    0.993 --    11 C    0.977
    40   1 H    0.994 --    11 C    0.974
    41   1 H    0.996 --    12 C    0.964
    42   1 H    0.998 --    13 C    0.964
    43   1 H    0.993 --    14 C    0.966
    44   1 H    0.997 --    14 C    0.974
    45   1 H    0.996 --    15 C    0.966
    46   1 H    0.993 --    15 C    0.970
    47   1 H    0.995 --     2 C    0.955
    48   1 H    0.996 --    16 C    0.969
    49   1 H    0.986 --    18 C    0.962
    50   1 H    0.997 --    18 C    0.972
    51   1 H    0.994 --    19 C    0.969
    52   1 H    0.996 --    19 C    0.969
    53   1 H    0.997 --    21 C    0.968
    54   1 H    0.995 --    22 C    0.963
    55   1 H    0.991 --    25 C    0.973
    56   1 H    0.991 --    25 C    0.972
    57   1 H    0.993 --    25 C    0.977
    58   1 H    0.993 --    28 C    0.977
    59   1 H    0.993 --    28 C    0.973
    60   1 H    0.992 --    28 C    0.973
    61   1 H    0.996 --    29 C    0.962
    62   1 H    0.992 --    30 C    0.975
    63   1 H    0.984 --    30 C    0.968
    64   1 H    0.996 --    30 C    0.979
    65   1 H    0.996 --    31 C    0.967
    66   1 H    0.998 --    32 C    0.986
    67   1 H    0.996 --    32 C    0.980
    68   1 H    0.996 --    32 C    0.982
    69   1 H    0.989 --    33 C    0.963
    70   1 H    0.983 --    16 C    0.937
    71   1 H    0.984 --    33 C    0.955
    72   1 H    0.965 --     1 N    0.937
 ---------------------------------------------------------------------------

molecular dipole:
                 x           y           z       tot (Debye)
 q only:       -1.121       2.111       0.699
   full:       -0.997       2.417       1.106       7.216

           -------------------------------------------------
          | TOTAL ENERGY              -99.438304731934 Eh   |
          | GRADIENT NORM               0.003883519381 Eh/α |
          | HOMO-LUMO GAP               1.425119369657 eV   |
           -------------------------------------------------

 * finished run on 2024/04/06 at 11:15:07.433
