   * xtb version 6.6.1 (8d0f1dd) compiled by 'conda@1efc2f54142f' on 2023-08-01
          program call               : xtb struc.xyz --opt loose --input .xc1 --gfn2

   ID    Z sym.   atoms
    1    7 N      1, 17
    2    6 C      2-6, 8, 9, 11-16, 18-23, 25, 26, 28-33
    3    8 O      7, 10, 24, 27
    4    1 H      34-72
constraining bond 4 43 to    3.7133300 Å, actual value:    2.8284344 Å

          :  Hamiltonian                  GFN2-xTB          :
 * total energy  :   -99.5439453 Eh     change       -0.4035485E-08 Eh
 * total energy  :   -99.7720700 Eh     change       -0.2281247E+00 Eh
 * total energy  :  -100.0601395 Eh     change       -0.2880695E+00 Eh
 * total energy  :  -100.4074377 Eh     change       -0.3472982E+00 Eh
 * total energy  :   -99.1398667 Eh     change        0.1267571E+01 Eh
 * total energy  :  -100.5188547 Eh     change       -0.1378988E+01 Eh
 * total energy  :  -100.5665154 Eh     change       -0.4766078E-01 Eh
 * total energy  :  -100.6049192 Eh     change       -0.3840373E-01 Eh
 * total energy  :  -100.6039745 Eh     change        0.9446467E-03 Eh
 * total energy  :  -100.6238934 Eh     change       -0.1991892E-01 Eh
 * total energy  :  -100.7761360 Eh     change       -0.1886053E-03 Eh
 * total energy  :  -100.7763180 Eh     change       -0.1820272E-03 Eh
 * total energy  :  -100.7764976 Eh     change       -0.1795636E-03 Eh
 * total energy  :  -100.7766453 Eh     change       -0.1477388E-03 Eh
 * total energy  :  -100.7767337 Eh     change       -0.8842458E-04 Eh
 * total energy  :  -100.7768182 Eh     change       -0.8445644E-04 Eh
 * total energy  :  -100.7768835 Eh     change       -0.6528921E-04 Eh
 * total energy  :  -100.7769619 Eh     change       -0.7840066E-04 Eh
 * total energy  :  -100.7770016 Eh     change       -0.3968857E-04 Eh
   *** GEOMETRY OPTIMIZATION CONVERGED AFTER 68 ITERATIONS ***

 final structure:
================
72
 xtb: 6.6.1 (8d0f1dd)
N           -1.36677316113722        2.39676159546992        2.32864084813248
C           -1.23910942672450        1.57347822782208        1.39545975327318
C           -2.23783140921463        1.42397754574667        0.27408948107012
C           -2.53046709144995       -0.14348691625916        0.10997899856333
C           -3.77687494325727       -0.39049733111527       -0.68828136334033
C           -4.77592533573368       -1.23190338797903       -0.31437757270467
O           -5.88871634428413       -1.49949734155994       -1.02904822313340
C           -6.07754132146885       -0.86105196801893       -2.27012440912237
C           -4.70814853276318       -1.93381604004226        0.94107160338229
O           -5.71930016232415       -2.75912350426556        1.19249148735701
C           -5.76909901118752       -3.47424017688916        2.40806509541368
C           -3.61513985756544       -1.68111671885047        1.78997842119377
C           -2.62130926821728       -0.82534221250248        1.43922598627184
C           -1.46167192158490        1.95650279129055       -0.93511415148475
C           -1.57081632889801        1.46828099226577       -2.35124368305971
C           -0.28148789648888        1.27666525724010       -1.61500475335994
N            0.18762389238774       -0.01905079145051       -1.21813384168645
C            1.51570237756750        0.00010501707956       -0.63873292228756
C            2.66846048322024        0.02021600859724       -1.66886857700332
C            3.99407041321283        0.22465831094247       -0.99997220680671
C            4.61920776672689        1.46362624427662       -1.01193654222074
C            5.85915203333882        1.64233442404067       -0.41979469576918
C            6.49969513622754        0.58515140738228        0.21273710674407
O            7.70765998901711        0.63731151531144        0.80104747833368
C            8.44362779861927        1.83839726525770        0.76192120354969
C            5.85475391456045       -0.68430019292395        0.25608964664777
O            6.53646843345483       -1.65009477661814        0.90056655189682
C            5.99328869884386       -2.94667900307628        0.97785615094438
C            4.61945599601554       -0.83975859226917       -0.35340808289691
C           -0.02693854777289       -1.10337111631533       -2.15798397414796
C           -3.54663626655737        2.23458896415453        0.47814552891856
C           -4.29404362770109        1.80480645956891        1.73843932445003
C           -3.33182769273245        3.74861607544797        0.52779410219751
H           -3.85729468981005        0.12358749475017       -1.63054556393014
H           -6.13685907289571        0.22571978014906       -2.15645174220869
H           -7.02568198290807       -1.23535447740933       -2.64981124393266
H           -5.28118815463080       -1.11448788121646       -2.97683857553052
H           -5.86906944494027       -2.79755948279013        3.26176622536653
H           -6.65501312117127       -4.10368419101587        2.34078456727644
H           -4.88502685559045       -4.10449440649489        2.53951130954371
H           -3.57621391438480       -2.16382124016253        2.75383826932173
H           -1.80837942631413       -0.66501092611032        2.12903005409285
H           -1.89667605921876       -0.40869437239492       -0.27235742929482
H           -1.31752386916440        3.02496973972461       -0.83545833577972
H           -2.15841451257623        0.59548688294289       -2.57148083348032
H           -1.60125594048105        2.20585111522114       -3.13944659334982
H           -0.36281206311638        0.92284610545234        1.26610144107420
H            0.52119746843421        1.95971039294878       -1.88827215203613
H            1.61969181354343       -0.88659910449858       -0.00610418505534
H            1.59884888178131        0.88530337015186       -0.00348460672234
H            2.49086272199088        0.82651667889577       -2.38297461941672
H            2.67800036272755       -0.92544221936771       -2.21292195315009
H            4.14766202870977        2.30063835437575       -1.50404351511473
H            6.32623446362666        2.61265660316725       -0.46306354049935
H            7.92067049112964        2.64663079040657        1.28178133803872
H            8.65632449173206        2.14300769732701       -0.26722895158559
H            9.37886094282893        1.62464114392678        1.27577160627772
H            6.72050821271519       -3.53523013746630        1.53387092832796
H            5.03891897621676       -2.95011077683381        1.51392249519436
H            5.85724173920537       -3.38420601726687       -0.01584124588930
H            4.13378169501670       -1.80293902635447       -0.34673490557535
H            0.41107203268671       -0.90321717366283       -3.14213615179768
H           -1.09220937146235       -1.28226353490050       -2.29095518465762
H            0.41739145343856       -2.00917940783992       -1.75049401199049
H           -4.18462465982096        2.02110264583933       -0.38645351682958
H           -3.66669508695686        1.95166723191683        2.61183943744818
H           -4.60250662989686        0.76628921308555        1.68661533362783
H           -5.18694349357343        2.41336754187758        1.85420234003051
H           -2.60371223277498        4.00217969053735        1.29158111547994
H           -3.01260451630688        4.14883699676839       -0.43033560982177
H           -4.27296366496912        4.22900460685717        0.78225404391457
H           -0.61659220242892        2.45427178894936        3.01025503744420

          :  Hamiltonian                  GFN2-xTB          :
         :: total energy            -100.777001578073 Eh    ::
         :: gradient norm              0.001464084411 Eh/a0 ::
         :: HOMO-LUMO gap              1.178945009287 eV    ::
         :: SCC energy              -100.737821388097 Eh    ::
         :: -> dispersion             -0.076488488593 Eh    ::
         :: repulsion energy           1.489084117021 Eh    ::

    * Orbital Energies and Occupations

         #    Occupation            Energy/Eh            Energy/eV
      -------------------------------------------------------------
         1        2.0000           -0.8311260             -22.6161
       ...           ...                  ...                  ...
        78        1.9978           -0.5322861             -14.4842
        79        1.9975           -0.5306068             -14.4385
        80        1.9972           -0.5286376             -14.3850
        81        1.9967           -0.5261253             -14.3166
        82        1.9953           -0.5205645             -14.1653
        83        1.9950           -0.5192883             -14.1306
        84        1.9936           -0.5154075             -14.0250
        85        1.9916           -0.5111279             -13.9085
        86        1.9677           -0.4896506             -13.3241
        87        1.9642           -0.4880076             -13.2794
        88        1.9127           -0.4734742             -12.8839
        89        1.8590           -0.4654374             -12.6652
        90        1.7342           -0.4542931             -12.3619 (HOMO)
        91        0.5944           -0.4109677             -11.1830 (LUMO)
        92        0.0106           -0.3416480              -9.2967
        93        0.0032           -0.3225970              -8.7783
        94        0.0018           -0.3132613              -8.5243
        95        0.0015           -0.3106006              -8.4519
        96        0.0000           -0.2388543              -6.4996
        97        0.0000           -0.1883163              -5.1243
        98        0.0000           -0.1728150              -4.7025
        99                         -0.1063259              -2.8933
       100                         -0.0817312              -2.2240
       101                         -0.0793075              -2.1581
       ...                                ...                  ...
       171                          1.1469945              31.2113
      -------------------------------------------------------------
                  HL-Gap            0.0433254 Eh            1.1789 eV

     #   Z          covCN         q      C6AA      α(0)
     1   7 N        1.774    -0.271    27.858     7.816
     2   6 C        2.839     0.097    25.838     8.330
     3   6 C        3.896     0.015    20.277     6.401
     4   6 C        3.858    -0.053    21.483     6.592
     5   6 C        2.904    -0.080    30.011     8.983
     6   6 C        2.848     0.134    25.067     8.206
     7   8 O        1.706    -0.233    17.868     5.707
     8   6 C        3.645     0.025    20.484     6.505
     9   6 C        2.863     0.142    24.899     8.179
    10   8 O        1.706    -0.189    17.155     5.592
    11   6 C        3.645     0.018    20.612     6.525
    12   6 C        2.898    -0.063    29.561     8.915
    13   6 C        2.906    -0.032    28.809     8.801
    14   6 C        3.879    -0.036    21.174     6.542
    15   6 C        3.806    -0.076    21.938     6.668
    16   6 C        3.807     0.033    20.009     6.368
    17   7 N        2.724    -0.137    23.976     7.272
    18   6 C        3.757     0.003    20.578     6.468
    19   6 C        3.806    -0.071    21.851     6.654
    20   6 C        2.967     0.007    27.863     8.658
    21   6 C        2.922    -0.044    29.099     8.846
    22   6 C        2.913    -0.066    29.633     8.926
    23   6 C        2.864     0.135    25.049     8.204
    24   8 O        1.706    -0.217    17.596     5.664
    25   6 C        3.645     0.024    20.509     6.509
    26   6 C        2.862     0.135    25.050     8.204
    27   8 O        1.706    -0.220    17.653     5.673
    28   6 C        3.645     0.026    20.471     6.503
    29   6 C        2.919    -0.077    29.926     8.971
    30   6 C        3.700    -0.046    21.562     6.641
    31   6 C        3.850    -0.010    20.715     6.474
    32   6 C        3.757    -0.120    22.854     6.816
    33   6 C        3.756    -0.122    22.888     6.821
    34   1 H        0.926     0.060     2.198     2.318
    35   1 H        0.924     0.053     2.281     2.362
    36   1 H        0.925     0.085     1.931     2.173
    37   1 H        0.924     0.049     2.337     2.390
    38   1 H        0.924     0.067     2.124     2.279
    39   1 H        0.925     0.091     1.868     2.137
    40   1 H        0.924     0.064     2.158     2.297
    41   1 H        0.926     0.065     2.142     2.288
    42   1 H        0.926     0.056     2.245     2.343
    43   1 H        0.931     0.147     1.413     1.859
    44   1 H        0.925     0.059     2.215     2.327
    45   1 H        0.926     0.054     2.266     2.354
    46   1 H        0.926     0.053     2.278     2.360
    47   1 H        0.923     0.019     2.741     2.589
    48   1 H        0.925     0.033     2.541     2.493
    49   1 H        0.924     0.046     2.366     2.405
    50   1 H        0.924     0.046     2.375     2.410
    51   1 H        0.924     0.047     2.354     2.400
    52   1 H        0.924     0.054     2.274     2.358
    53   1 H        0.926     0.050     2.316     2.380
    54   1 H        0.926     0.060     2.193     2.316
    55   1 H        0.924     0.057     2.233     2.337
    56   1 H        0.924     0.058     2.217     2.328
    57   1 H        0.925     0.084     1.938     2.177
    58   1 H        0.925     0.083     1.947     2.182
    59   1 H        0.924     0.051     2.305     2.374
    60   1 H        0.924     0.055     2.255     2.349
    61   1 H        0.926     0.051     2.313     2.378
    62   1 H        0.924     0.046     2.366     2.405
    63   1 H        0.925     0.051     2.310     2.377
    64   1 H        0.925     0.055     2.257     2.349
    65   1 H        0.924     0.042     2.426     2.436
    66   1 H        0.925     0.064     2.155     2.296
    67   1 H        0.925     0.032     2.552     2.498
    68   1 H        0.925     0.054     2.269     2.355
    69   1 H        0.925     0.069     2.091     2.261
    70   1 H        0.925     0.039     2.460     2.453
    71   1 H        0.925     0.056     2.241     2.341
    72   1 H        0.860     0.161     1.331     1.807

Wiberg/Mayer (AO) data.
largest (>0.10) Wiberg bond orders for each atom

     #   Z sym  total        # sym  WBO       # sym  WBO       # sym  WBO
 ---------------------------------------------------------------------------
     1   7 N    3.008 --     2 C    1.949    72 H    0.940
     2   6 C    3.941 --     1 N    1.949     3 C    0.987    47 H    0.930
     3   6 C    3.917 --     2 C    0.987    14 C    0.966    31 C    0.961
                             4 C    0.871
     4   6 C    3.971 --    13 C    1.046     5 C    1.038    43 H    0.905
                             3 C    0.871
     5   6 C    3.800 --     6 C    1.564     4 C    1.038    34 H    0.952
                             7 O    0.104
     6   6 C    3.931 --     5 C    1.564     9 C    1.138     7 O    1.094
     7   8 O    2.260 --     6 C    1.094     8 C    0.977     5 C    0.104
     8   6 C    3.931 --     7 O    0.977    36 H    0.976    37 H    0.974
                            35 H    0.974
     9   6 C    3.694 --    12 C    1.265    10 O    1.169     6 C    1.138
    10   8 O    2.282 --     9 C    1.169    11 C    0.967
    11   6 C    3.920 --    39 H    0.976    40 H    0.971    38 H    0.970
                            10 O    0.967
    12   6 C    3.976 --    13 C    1.614     9 C    1.265    41 H    0.958
    13   6 C    3.750 --    12 C    1.614     4 C    1.046    42 H    0.962
    14   6 C    3.915 --     3 C    0.966    15 C    0.962    44 H    0.959
                            16 C    0.927
    15   6 C    3.936 --    46 H    0.976    16 C    0.967    45 H    0.965
                            14 C    0.962
    16   6 C    3.916 --    17 N    1.012    15 C    0.967    48 H    0.955
                            14 C    0.927
    17   7 N    3.124 --    16 C    1.012    18 C    1.006    30 C    1.005
    18   6 C    3.967 --    17 N    1.006    50 H    0.971    49 H    0.968
                            19 C    0.962
    19   6 C    3.973 --    20 C    1.017    51 H    0.970    52 H    0.966
                            18 C    0.962
    20   6 C    3.928 --    21 C    1.394    29 C    1.378    19 C    1.017
    21   6 C    3.930 --    22 C    1.422    20 C    1.394    53 H    0.967
    22   6 C    3.950 --    21 C    1.422    23 C    1.376    54 H    0.962
    23   6 C    3.874 --    22 C    1.376    26 C    1.209    24 O    1.115
    24   8 O    2.247 --    23 C    1.115    25 C    0.975
    25   6 C    3.925 --    57 H    0.976    24 O    0.975    56 H    0.971
                            55 H    0.971
    26   6 C    3.883 --    29 C    1.393    23 C    1.209    27 O    1.109
    27   8 O    2.249 --    26 C    1.109    28 C    0.977
    28   6 C    3.929 --    27 O    0.977    58 H    0.976    59 H    0.972
                            60 H    0.972
    29   6 C    3.951 --    26 C    1.393    20 C    1.378    61 H    0.962
    30   6 C    3.969 --    17 N    1.005    64 H    0.980    63 H    0.974
                            62 H    0.968
    31   6 C    3.972 --    32 C    1.008    33 C    1.004     3 C    0.961
                            65 H    0.956
    32   6 C    3.980 --    31 C    1.008    68 H    0.979    67 H    0.979
                            66 H    0.976
    33   6 C    3.974 --    31 C    1.004    70 H    0.980    71 H    0.979
                            69 H    0.972
    34   1 H    0.995 --     5 C    0.952
    35   1 H    0.995 --     8 C    0.974
    36   1 H    0.992 --     8 C    0.976
    37   1 H    0.995 --     8 C    0.974
    38   1 H    0.988 --    11 C    0.970
    39   1 H    0.991 --    11 C    0.976
    40   1 H    0.989 --    11 C    0.971
    41   1 H    0.994 --    12 C    0.958
    42   1 H    0.996 --    13 C    0.962
    43   1 H    0.956 --     4 C    0.905
    44   1 H    0.993 --    14 C    0.959
    45   1 H    0.997 --    15 C    0.965
    46   1 H    0.994 --    15 C    0.976
    47   1 H    0.980 --     2 C    0.930
    48   1 H    0.987 --    16 C    0.955
    49   1 H    0.992 --    18 C    0.968
    50   1 H    0.997 --    18 C    0.971
    51   1 H    0.996 --    19 C    0.970
    52   1 H    0.994 --    19 C    0.966
    53   1 H    0.996 --    21 C    0.967
    54   1 H    0.994 --    22 C    0.962
    55   1 H    0.989 --    25 C    0.971
    56   1 H    0.989 --    25 C    0.971
    57   1 H    0.992 --    25 C    0.976
    58   1 H    0.992 --    28 C    0.976
    59   1 H    0.991 --    28 C    0.972
    60   1 H    0.991 --    28 C    0.972
    61   1 H    0.996 --    29 C    0.962
    62   1 H    0.982 --    30 C    0.968
    63   1 H    0.993 --    30 C    0.974
    64   1 H    0.996 --    30 C    0.980
    65   1 H    0.991 --    31 C    0.956
    66   1 H    0.992 --    32 C    0.976
    67   1 H    0.997 --    32 C    0.979
    68   1 H    0.993 --    32 C    0.979
    69   1 H    0.990 --    33 C    0.972
    70   1 H    0.996 --    33 C    0.980
    71   1 H    0.993 --    33 C    0.979
    72   1 H    0.966 --     1 N    0.940
 ---------------------------------------------------------------------------

molecular dipole:
                 x           y           z       tot (Debye)
 q only:       -0.438      -0.537       0.037
   full:        0.106      -0.669      -0.246       1.832

           -------------------------------------------------
          | TOTAL ENERGY             -100.777001578073 Eh   |
          | GRADIENT NORM               0.001464084411 Eh/α |
          | HOMO-LUMO GAP               1.178945009287 eV   |
           -------------------------------------------------

 * finished run on 2024/04/06 at 11:15:48.901
