   * xtb version 6.6.1 (8d0f1dd) compiled by 'conda@1efc2f54142f' on 2023-08-01
          program call               : xtb xtbopt.xyz --opt crude --input .xc2 --gfn2

   ID    Z sym.   atoms
    1    7 N      1, 17
    2    6 C      2-6, 8, 9, 11-16, 18-23, 25, 26, 28-33
    3    8 O      7, 10, 24, 27
    4    1 H      34-72
########################################################################
[WARNING] Please study the warnings concerning your input carefully
-1- readin_getIntValue: could not parse ''
########################################################################

          :  Hamiltonian                  GFN2-xTB          :
 * total energy  :   -99.2472060 Eh     change       -0.1563194E-11 Eh
 * total energy  :   -99.3574307 Eh     change       -0.1102246E+00 Eh
 * total energy  :   -99.3592841 Eh     change       -0.1853427E-02 Eh
 * total energy  :   -99.3603615 Eh     change       -0.1077469E-02 Eh
 * total energy  :   -99.3605989 Eh     change       -0.2373430E-03 Eh
   *** GEOMETRY OPTIMIZATION CONVERGED AFTER 5 ITERATIONS ***

 final structure:
================
72
 xtb: 6.6.1 (8d0f1dd)
N           -1.37361887168443        2.40300801154287        2.33959166208753
C           -1.23996030796305        1.58727734929561        1.40131438942740
C           -2.23910074787843        1.42964421705948        0.27930963804309
C           -2.57181369659652       -0.11037519095920        0.15847699817338
C           -3.77349919089259       -0.38743266570852       -0.67471741335639
C           -4.76939724056683       -1.23957501837634       -0.30916530036683
O           -5.87371895491545       -1.52111274643250       -1.03235850592433
C           -6.07462661678917       -0.87075102472466       -2.26613494191530
C           -4.70507160804646       -1.94025471265195        0.94667969245646
O           -5.71837563438547       -2.76464460265113        1.19572461991484
C           -5.76938938934111       -3.48055244210826        2.41123131505561
C           -3.61586492181382       -1.68890420046268        1.79954047628752
C           -2.63424722013014       -0.80990104850556        1.46376611100376
C           -1.46360413482978        1.95287059509858       -0.93439447323170
C           -1.57802867260395        1.46789466487518       -2.35129503353510
C           -0.28861601854726        1.26733958598370       -1.61739509401691
N            0.17267316074156       -0.03681506016671       -1.22874764317230
C            1.50051165690537       -0.01817518838278       -0.64033514291846
C            2.65710346429258        0.01831798946441       -1.66544780997164
C            3.98242465710515        0.22366641677318       -0.99441073835421
C            4.60684051276575        1.46301655687842       -1.00665100544531
C            5.84714698254591        1.64303689153217       -0.41537859893303
C            6.48928147617914        0.58622990576156        0.21589743017155
O            7.69560383069503        0.63900128909830        0.80714368827178
C            8.43243879096041        1.83969646058865        0.76889982619034
C            5.84733699764167       -0.68472971120783        0.25567188308427
O            6.53351624215785       -1.65020804096089        0.89620612984717
C            5.99366879483600       -2.94793316030486        0.97332631365411
C            4.61142666818110       -0.84139931223963       -0.35234881725111
C           -0.01350824438644       -1.10604149231067       -2.19647159379612
C           -3.54488709842872        2.25278206335078        0.48006951429279
C           -4.29699886950293        1.82771937679038        1.73949932248570
C           -3.32398533101540        3.76559382475593        0.52737820226330
H           -3.85226647978999        0.12989574928680       -1.61492112170164
H           -6.13429983178025        0.21475448895464       -2.14235096488094
H           -7.02640286637010       -1.24272181277385       -2.63989416419620
H           -5.28492912308674       -1.11721698493470       -2.98267800622084
H           -5.85066696860878       -2.80405072940383        3.26668853150296
H           -6.66531859921774       -4.09534253987158        2.35021304265256
H           -4.89419479033950       -4.12450692064682        2.53313998288119
H           -3.57048085952047       -2.18786371645733        2.75492907445578
H           -1.82819618175847       -0.64096569057595        2.15948773577047
H           -1.67662268576518       -0.49969629925370       -0.35790091707337
H           -1.31126121144682        3.02057588430109       -0.83689828636856
H           -2.17063493692381        0.59848682693238       -2.57157143346151
H           -1.60442215314720        2.20694427624121       -3.13820058535233
H           -0.35970851757079        0.94336258876888        1.26709842877280
H            0.51841251248790        1.94534731937216       -1.89026801751350
H            1.60570971799769       -0.91129988666610       -0.01674183927763
H            1.57616344107980        0.86009320472790        0.00544035408422
H            2.47864128471012        0.82918534882101       -2.37381983345579
H            2.67401041576889       -0.92272104640277       -2.21706270960165
H            4.13475435519721        2.29976036401391       -1.49864844230448
H            6.31287587560714        2.61403288915949       -0.45790804597791
H            7.91073491663621        2.64750471292455        1.29075299897414
H            8.64416824261845        2.14565793036620       -0.25996120586962
H            9.36808288888458        1.62438018350795        1.28147567050822
H            6.72317314575279       -3.53538680314228        1.52751359071237
H            5.04032150814393       -2.95397543026462        1.51122139131997
H            5.85675625965401       -3.38509976524887       -0.02047371352446
H            4.12874398666770       -1.80612814450997       -0.34829420270299
H            0.45014212364604       -0.88943400479741       -3.16466819928889
H           -1.07460212616411       -1.28760761792627       -2.36312489787442
H            0.42186538692643       -2.01715671374685       -1.78944472282845
H           -4.18221338535397        2.04027203715202       -0.38557941764417
H           -3.67426948212927        1.98342465950073        2.61496757252688
H           -4.60008781705058        0.78687022639325        1.69414166667156
H           -5.19381206525660        2.43241835463128        1.84733258908053
H           -2.59524139350831        4.01788961235871        1.29104168704417
H           -3.00263399957733        4.16335302394110       -0.43121552202427
H           -4.26325150137995        4.25041150239152        0.78080135518884
H           -0.62418395420250        2.46240286343400        3.02217032059957

          :  Hamiltonian                  GFN2-xTB          :
         :: total energy             -99.360598894915 Eh    ::
         :: gradient norm              0.004006147800 Eh/a0 ::
         :: HOMO-LUMO gap              1.226251257410 eV    ::
         :: SCC energy              -100.712983213952 Eh    ::
         :: -> dispersion             -0.076356216683 Eh    ::
         :: repulsion energy           1.350846704005 Eh    ::

    * Orbital Energies and Occupations

         #    Occupation            Energy/Eh            Energy/eV
      -------------------------------------------------------------
         1        2.0000           -0.8307227             -22.6051
       ...           ...                  ...                  ...
        78        1.9978           -0.5323243             -14.4853
        79        1.9975           -0.5301275             -14.4255
        80        1.9972           -0.5281226             -14.3709
        81        1.9967           -0.5258749             -14.3098
        82        1.9954           -0.5204476             -14.1621
        83        1.9950           -0.5190716             -14.1247
        84        1.9935           -0.5150553             -14.0154
        85        1.9919           -0.5114165             -13.9164
        86        1.9682           -0.4896584             -13.3243
        87        1.9646           -0.4879178             -13.2769
        88        1.9135           -0.4733782             -12.8813
        89        1.8710           -0.4666911             -12.6993
        90        1.7452           -0.4548056             -12.3759 (HOMO)
        91        0.5692           -0.4097417             -11.1496 (LUMO)
        92        0.0105           -0.3412644              -9.2863
        93        0.0033           -0.3227846              -8.7834
        94        0.0018           -0.3131954              -8.5225
        95        0.0015           -0.3105294              -8.4499
        96        0.0000           -0.2392004              -6.5090
        97        0.0000           -0.1882329              -5.1221
        98        0.0000           -0.1735169              -4.7216
        99                         -0.1096327              -2.9833
       100                         -0.0808090              -2.1989
       101                         -0.0737441              -2.0067
       ...                                ...                  ...
       171                          0.5745152              15.6334
      -------------------------------------------------------------
                  HL-Gap            0.0450639 Eh            1.2263 eV

     #   Z          covCN         q      C6AA      α(0)
     1   7 N        1.774    -0.270    27.837     7.813
     2   6 C        2.839     0.098    25.821     8.327
     3   6 C        3.899     0.015    20.272     6.400
     4   6 C        3.860    -0.028    21.039     6.523
     5   6 C        2.904    -0.076    29.901     8.966
     6   6 C        2.848     0.134    25.065     8.205
     7   8 O        1.706    -0.233    17.865     5.707
     8   6 C        3.644     0.025    20.487     6.506
     9   6 C        2.862     0.143    24.892     8.178
    10   8 O        1.706    -0.190    17.172     5.595
    11   6 C        3.645     0.018    20.610     6.525
    12   6 C        2.899    -0.063    29.572     8.916
    13   6 C        2.906    -0.028    28.708     8.786
    14   6 C        3.878    -0.036    21.173     6.542
    15   6 C        3.806    -0.075    21.936     6.667
    16   6 C        3.807     0.033    20.009     6.368
    17   7 N        2.724    -0.139    24.006     7.277
    18   6 C        3.757     0.003    20.572     6.467
    19   6 C        3.806    -0.071    21.850     6.654
    20   6 C        2.967     0.007    27.871     8.659
    21   6 C        2.922    -0.044    29.101     8.846
    22   6 C        2.913    -0.066    29.634     8.927
    23   6 C        2.864     0.135    25.049     8.204
    24   8 O        1.706    -0.217    17.598     5.664
    25   6 C        3.645     0.024    20.509     6.509
    26   6 C        2.862     0.135    25.053     8.204
    27   8 O        1.706    -0.220    17.655     5.673
    28   6 C        3.645     0.026    20.469     6.503
    29   6 C        2.919    -0.077    29.926     8.971
    30   6 C        3.699    -0.044    21.532     6.636
    31   6 C        3.850    -0.009    20.709     6.473
    32   6 C        3.757    -0.119    22.833     6.813
    33   6 C        3.755    -0.121    22.879     6.820
    34   1 H        0.926     0.061     2.188     2.313
    35   1 H        0.924     0.053     2.281     2.362
    36   1 H        0.925     0.085     1.929     2.172
    37   1 H        0.924     0.049     2.335     2.389
    38   1 H        0.924     0.066     2.129     2.282
    39   1 H        0.925     0.091     1.867     2.137
    40   1 H        0.924     0.064     2.158     2.297
    41   1 H        0.926     0.065     2.138     2.286
    42   1 H        0.926     0.056     2.241     2.341
    43   1 H        0.923     0.117     1.634     1.999
    44   1 H        0.925     0.058     2.219     2.329
    45   1 H        0.926     0.054     2.272     2.357
    46   1 H        0.926     0.054     2.274     2.358
    47   1 H        0.923     0.018     2.761     2.599
    48   1 H        0.925     0.033     2.551     2.498
    49   1 H        0.924     0.046     2.372     2.409
    50   1 H        0.924     0.045     2.378     2.412
    51   1 H        0.924     0.047     2.355     2.400
    52   1 H        0.924     0.054     2.273     2.358
    53   1 H        0.926     0.050     2.319     2.381
    54   1 H        0.926     0.060     2.194     2.316
    55   1 H        0.924     0.057     2.233     2.337
    56   1 H        0.924     0.058     2.218     2.329
    57   1 H        0.925     0.084     1.938     2.177
    58   1 H        0.925     0.083     1.948     2.183
    59   1 H        0.924     0.051     2.307     2.375
    60   1 H        0.924     0.055     2.257     2.350
    61   1 H        0.926     0.050     2.316     2.380
    62   1 H        0.924     0.046     2.373     2.409
    63   1 H        0.925     0.050     2.314     2.379
    64   1 H        0.925     0.055     2.261     2.351
    65   1 H        0.924     0.041     2.437     2.441
    66   1 H        0.925     0.064     2.154     2.295
    67   1 H        0.925     0.032     2.557     2.501
    68   1 H        0.925     0.054     2.275     2.359
    69   1 H        0.925     0.069     2.098     2.265
    70   1 H        0.925     0.039     2.463     2.454
    71   1 H        0.925     0.056     2.242     2.342
    72   1 H        0.860     0.161     1.329     1.806

Wiberg/Mayer (AO) data.
largest (>0.10) Wiberg bond orders for each atom

     #   Z sym  total        # sym  WBO       # sym  WBO       # sym  WBO
 ---------------------------------------------------------------------------
     1   7 N    3.010 --     2 C    1.952    72 H    0.940
     2   6 C    3.941 --     1 N    1.952     3 C    0.984    47 H    0.930
     3   6 C    3.930 --     2 C    0.984    14 C    0.966    31 C    0.957
                             4 C    0.896
     4   6 C    3.975 --    13 C    1.060     5 C    1.050     3 C    0.896
                            43 H    0.857
     5   6 C    3.806 --     6 C    1.557     4 C    1.050    34 H    0.952
                             7 O    0.104
     6   6 C    3.931 --     5 C    1.557     9 C    1.141     7 O    1.095
     7   8 O    2.260 --     6 C    1.095     8 C    0.976     5 C    0.104
     8   6 C    3.931 --     7 O    0.976    36 H    0.976    37 H    0.974
                            35 H    0.974
     9   6 C    3.703 --    12 C    1.271    10 O    1.168     6 C    1.141
    10   8 O    2.283 --     9 C    1.168    11 C    0.967
    11   6 C    3.920 --    39 H    0.976    40 H    0.971    38 H    0.970
                            10 O    0.967
    12   6 C    3.976 --    13 C    1.603     9 C    1.271    41 H    0.959
    13   6 C    3.759 --    12 C    1.603     4 C    1.060    42 H    0.962
    14   6 C    3.918 --     3 C    0.966    15 C    0.963    44 H    0.960
                            16 C    0.929
    15   6 C    3.936 --    46 H    0.976    16 C    0.967    45 H    0.965
                            14 C    0.963
    16   6 C    3.917 --    17 N    1.008    15 C    0.967    48 H    0.956
                            14 C    0.929
    17   7 N    3.145 --    16 C    1.008    18 C    1.003    30 C    1.002
    18   6 C    3.968 --    17 N    1.003    50 H    0.971    49 H    0.969
                            19 C    0.964
    19   6 C    3.975 --    20 C    1.016    51 H    0.970    52 H    0.966
                            18 C    0.964
    20   6 C    3.928 --    21 C    1.395    29 C    1.378    19 C    1.016
    21   6 C    3.930 --    22 C    1.422    20 C    1.395    53 H    0.967
    22   6 C    3.950 --    21 C    1.422    23 C    1.376    54 H    0.962
    23   6 C    3.875 --    22 C    1.376    26 C    1.209    24 O    1.115
    24   8 O    2.248 --    23 C    1.115    25 C    0.975
    25   6 C    3.925 --    57 H    0.976    24 O    0.975    56 H    0.971
                            55 H    0.971
    26   6 C    3.883 --    29 C    1.393    23 C    1.209    27 O    1.109
    27   8 O    2.249 --    26 C    1.109    28 C    0.978
    28   6 C    3.929 --    27 O    0.978    58 H    0.976    59 H    0.973
                            60 H    0.972
    29   6 C    3.951 --    26 C    1.393    20 C    1.378    61 H    0.962
    30   6 C    3.970 --    17 N    1.002    64 H    0.980    63 H    0.974
                            62 H    0.969
    31   6 C    3.971 --    32 C    1.008    33 C    1.006     3 C    0.957
                            65 H    0.956
    32   6 C    3.980 --    31 C    1.008    68 H    0.979    67 H    0.978
                            66 H    0.976
    33   6 C    3.975 --    31 C    1.006    70 H    0.980    71 H    0.979
                            69 H    0.972
    34   1 H    0.995 --     5 C    0.952
    35   1 H    0.995 --     8 C    0.974
    36   1 H    0.992 --     8 C    0.976
    37   1 H    0.995 --     8 C    0.974
    38   1 H    0.989 --    11 C    0.970
    39   1 H    0.991 --    11 C    0.976
    40   1 H    0.990 --    11 C    0.971
    41   1 H    0.994 --    12 C    0.959
    42   1 H    0.996 --    13 C    0.962
    43   1 H    0.941 --     4 C    0.857
    44   1 H    0.994 --    14 C    0.960
    45   1 H    0.997 --    15 C    0.965
    46   1 H    0.994 --    15 C    0.976
    47   1 H    0.980 --     2 C    0.930
    48   1 H    0.988 --    16 C    0.956
    49   1 H    0.993 --    18 C    0.969
    50   1 H    0.997 --    18 C    0.971
    51   1 H    0.996 --    19 C    0.970
    52   1 H    0.994 --    19 C    0.966
    53   1 H    0.996 --    21 C    0.967
    54   1 H    0.994 --    22 C    0.962
    55   1 H    0.989 --    25 C    0.971
    56   1 H    0.989 --    25 C    0.971
    57   1 H    0.992 --    25 C    0.976
    58   1 H    0.992 --    28 C    0.976
    59   1 H    0.991 --    28 C    0.973
    60   1 H    0.991 --    28 C    0.972
    61   1 H    0.996 --    29 C    0.962
    62   1 H    0.984 --    30 C    0.969
    63   1 H    0.994 --    30 C    0.974
    64   1 H    0.996 --    30 C    0.980
    65   1 H    0.991 --    31 C    0.956
    66   1 H    0.992 --    32 C    0.976
    67   1 H    0.997 --    32 C    0.978
    68   1 H    0.993 --    32 C    0.979
    69   1 H    0.990 --    33 C    0.972
    70   1 H    0.996 --    33 C    0.980
    71   1 H    0.993 --    33 C    0.979
    72   1 H    0.966 --     1 N    0.940
 ---------------------------------------------------------------------------

molecular dipole:
                 x           y           z       tot (Debye)
 q only:       -0.469      -0.541       0.042
   full:        0.090      -0.670      -0.248       1.831

           -------------------------------------------------
          | TOTAL ENERGY              -99.360598894915 Eh   |
          | GRADIENT NORM               0.004006147800 Eh/α |
          | HOMO-LUMO GAP               1.226251257410 eV   |
           -------------------------------------------------

 * finished run on 2024/04/06 at 11:15:50.021
