   * xtb version 6.6.1 (8d0f1dd) compiled by 'conda@1efc2f54142f' on 2023-08-01
          program call               : xtb xtbopt.xyz --opt crude --input .xc2 --gfn2

   ID    Z sym.   atoms
    1    7 N      1, 17
    2    6 C      2-6, 8, 9, 11-16, 18-23, 25, 26, 28-33
    3    8 O      7, 10, 24, 27
    4    1 H      34-72

          :  Hamiltonian                  GFN2-xTB          :
 * total energy  :   -99.2506281 Eh     change       -0.1428191E-10 Eh
   *** GEOMETRY OPTIMIZATION CONVERGED AFTER 1 ITERATIONS ***

 final structure:
================
72
 xtb: 6.6.1 (8d0f1dd)
N           -1.86080536685740        2.90773930347707        2.26030437022649
C           -1.82518257803866        2.16755299140344        1.25531251127889
C           -2.98410060146326        1.92070068900920        0.33825513190242
C           -3.44736794715479        0.47832963130863        0.43608272076450
C           -4.40453470553245        0.01988131414787       -0.43835429759765
C           -4.89988802939945       -1.25728362962327       -0.44297330882203
O           -5.83602904392636       -1.71233306025002       -1.30235487179810
C           -6.34521373688310       -0.79152340660943       -2.20197430591080
C           -4.39542065762758       -2.18358774288901        0.51962848076719
O           -4.91375644182667       -3.42350231692799        0.45369446833414
C           -4.53221318472380       -4.38215414457903        1.41325921840403
C           -3.43785056862866       -1.73471756490696        1.41970186641430
C           -2.97238677877042       -0.42611132635017        1.38511568130602
C           -2.48447280537764        2.17274371880554       -1.10792512010598
C           -1.54409668811651        1.08603099883398       -1.65766339474904
C           -0.19540911762619        1.09827291362998       -1.05401607764499
N            0.48687240183824        0.02724516124465       -0.67913280866959
C            1.87019154463546        0.13488827981607       -0.27810685538990
C            2.82857883260226       -0.33531682443712       -1.38919991562297
C            4.25126542920366       -0.13874477689579       -0.94543724879363
C            4.89385965984255        1.07074810100479       -1.15684164483543
C            6.19341665330189        1.27043307597375       -0.71864483525528
C            6.87733677146332        0.26218941925944       -0.05384439079832
O            8.13516568256269        0.34357346189525        0.41442332076692
C            8.86817029873959        1.53097135516641        0.21676487614003
C            6.22553596183906       -0.98320958112340        0.16891358840472
O            6.96219931705178       -1.90660882187112        0.81582757789625
C            6.41675485752989       -3.18209550812492        1.05519163094584
C            4.92441348157796       -1.15803517882343       -0.27665289436791
C           -0.09059844373375       -1.29574778031727       -0.70946615013208
C           -4.22332874256247        2.81676920963546        0.62855508829762
C           -4.81196389677818        2.53115560355866        2.00801071518414
C           -3.93311755079953        4.30704958465569        0.48954957709452
H           -4.38309402511109       -0.10045148774337       -3.55147286070143
H           -6.69421404266326        0.12333431674972       -1.71492837176698
H           -7.12715334153384       -1.27821052325135       -2.77753059491356
H           -5.48244643064539       -0.45446535722481       -2.93425806408663
H           -4.77737635450011       -4.05222642238483        2.42694211849680
H           -5.10481159699462       -5.27633071985018        1.17487859166633
H           -3.46304471265363       -4.60838061152252        1.35012365749270
H           -3.04899497253608       -2.40275574842622        2.17184268387900
H           -2.25126791396826       -0.10485476226404        2.12278444037093
H           -3.35899518701053        2.20594541613449       -1.75760451907646
H           -1.98316284162166        3.14006519677493       -1.15205165610484
H           -2.02420962063439        0.11356999724017       -1.56654813248793
H           -1.42220588062077        1.29412763670253       -2.72875563351922
H           -0.91257022065302        1.64096878246816        0.91175600958029
H            0.33591719496888        2.03943954947924       -1.03854723240191
H            2.03178512324798       -0.46880394132313        0.61937702395512
H            2.09710790055741        1.17492190784136       -0.03499196844977
H            2.63508648613351        0.24853906939681       -2.29060426078660
H            2.64565571593289       -1.38684795024521       -1.61266472922869
H            4.38678473452914        1.86758184020409       -1.67933159135688
H            6.66912450844719        2.21931414911432       -0.90404578204703
H            8.39450277029741        2.38166227429388        0.71611071443724
H            8.99061667920932        1.75290573372963       -0.84746581856544
H            9.84417316037713        1.34904700430746        0.66232601605034
H            7.19830850407558       -3.74330547341405        1.56353489720588
H            5.53438923510982       -3.12656082627728        1.70083230830547
H            6.15679567014462       -3.68904809178558        0.12080888023139
H            4.42406337599989       -2.10068197356712       -0.11886063586535
H           -0.28349180460122       -1.61801446514737       -1.73456104272559
H           -1.03204310214200       -1.31374067379154       -0.15467458215881
H            0.59781199090055       -1.99860406857465       -0.24758846224781
H           -4.97066715943628        2.53209393813638       -0.12277752754449
H           -4.10519515146047        2.81490748040084        2.78146391469946
H           -5.05531809427367        1.47735898297792        2.12068450528289
H           -5.72290515245377        3.10841599829669        2.14204819556723
H           -3.16960549204203        4.60942348550345        1.20027281355662
H           -3.61138766343432        4.56593060291673       -0.51546750626072
H           -4.83825615460038        4.86894558037814        0.70396045691381
H           -1.00921454370327        3.02362052715047        2.80024588357113

          :  Hamiltonian                  GFN2-xTB          :
         :: total energy             -99.250628133367 Eh    ::
         :: gradient norm              0.001990115209 Eh/a0 ::
         :: HOMO-LUMO gap              0.208989074085 eV    ::
         :: SCC energy              -100.613884416410 Eh    ::
         :: -> dispersion             -0.075697739057 Eh    ::
         :: repulsion energy           1.361906913490 Eh    ::

    * Orbital Energies and Occupations

         #    Occupation            Energy/Eh            Energy/eV
      -------------------------------------------------------------
         1        2.0000           -0.8146123             -22.1667
       ...           ...                  ...                  ...
        78        1.9981           -0.5321386             -14.4802
        79        1.9977           -0.5292373             -14.4013
        80        1.9976           -0.5285945             -14.3838
        81        1.9967           -0.5234997             -14.2452
        82        1.9947           -0.5158048             -14.0358
        83        1.9932           -0.5118341             -13.9277
        84        1.9929           -0.5111116             -13.9081
        85        1.9767           -0.4922015             -13.3935
        86        1.9714           -0.4889017             -13.3037
        87        1.9271           -0.4737550             -12.8915
        88        1.8800           -0.4654651             -12.6659
        89        1.8290           -0.4594255             -12.5016
        90        1.1609           -0.4270410             -11.6204 (HOMO)
        91        0.9200           -0.4193608             -11.4114 (LUMO)
        92        0.3538           -0.3975543             -10.8180
        93        0.0123           -0.3413848              -9.2896
        94        0.0025           -0.3162055              -8.6044
        95        0.0025           -0.3158835              -8.5956
        96        0.0022           -0.3138833              -8.5412
        97        0.0015           -0.3084878              -8.3944
        98        0.0000           -0.1914287              -5.2090
        99        0.0000           -0.1864474              -5.0735
       100                         -0.1396292              -3.7995
       101                         -0.0700769              -1.9069
       ...                                ...                  ...
       171                          0.5724105              15.5761
      -------------------------------------------------------------
                  HL-Gap            0.0076802 Eh            0.2090 eV

     #   Z          covCN         q      C6AA      α(0)
     1   7 N        1.774    -0.265    27.707     7.795
     2   6 C        2.824     0.102    25.736     8.313
     3   6 C        3.909     0.011    20.335     6.409
     4   6 C        2.976     0.014    27.685     8.631
     5   6 C        2.009    -0.123    34.454     9.480
     6   6 C        2.882     0.133    25.097     8.213
     7   8 O        1.707    -0.197    17.289     5.614
     8   6 C        3.642     0.029    20.437     6.500
     9   6 C        2.866     0.130    25.141     8.219
    10   8 O        1.706    -0.226    17.751     5.688
    11   6 C        3.645     0.027    20.450     6.499
    12   6 C        2.912    -0.079    29.984     8.979
    13   6 C        2.927    -0.050    29.253     8.870
    14   6 C        3.813    -0.065    21.737     6.636
    15   6 C        3.802    -0.070    21.830     6.652
    16   6 C        2.844     0.013    27.711     8.627
    17   7 N        2.729     0.016    20.973     6.802
    18   6 C        3.756    -0.017    20.932     6.523
    19   6 C        3.808    -0.071    21.848     6.654
    20   6 C        2.969     0.001    28.013     8.682
    21   6 C        2.922    -0.048    29.197     8.861
    22   6 C        2.914    -0.067    29.667     8.931
    23   6 C        2.865     0.134    25.062     8.206
    24   8 O        1.706    -0.219    17.640     5.671
    25   6 C        3.645     0.024    20.502     6.507
    26   6 C        2.863     0.134    25.072     8.207
    27   8 O        1.706    -0.222    17.689     5.679
    28   6 C        3.645     0.026    20.465     6.502
    29   6 C        2.919    -0.079    29.981     8.979
    30   6 C        3.700    -0.071    22.033     6.713
    31   6 C        3.855    -0.007    20.672     6.466
    32   6 C        3.756    -0.118    22.812     6.810
    33   6 C        3.755    -0.119    22.828     6.813
    34   1 H        0.000    -0.132    17.039     7.548
    35   1 H        0.924     0.067     2.122     2.278
    36   1 H        0.925     0.086     1.919     2.166
    37   1 H        0.899     0.111     1.695     2.037
    38   1 H        0.924     0.056     2.246     2.343
    39   1 H        0.925     0.083     1.953     2.185
    40   1 H        0.924     0.049     2.334     2.389
    41   1 H        0.926     0.053     2.286     2.364
    42   1 H        0.926     0.041     2.434     2.440
    43   1 H        0.925     0.073     2.049     2.238
    44   1 H        0.924     0.053     2.281     2.362
    45   1 H        0.925     0.073     2.058     2.244
    46   1 H        0.924     0.088     1.901     2.156
    47   1 H        0.922     0.004     2.984     2.701
    48   1 H        0.926     0.073     2.057     2.243
    49   1 H        0.924     0.068     2.104     2.268
    50   1 H        0.924     0.068     2.105     2.269
    51   1 H        0.924     0.057     2.235     2.338
    52   1 H        0.924     0.057     2.237     2.339
    53   1 H        0.926     0.047     2.361     2.403
    54   1 H        0.926     0.060     2.199     2.319
    55   1 H        0.924     0.055     2.254     2.348
    56   1 H        0.924     0.057     2.232     2.336
    57   1 H        0.925     0.084     1.942     2.180
    58   1 H        0.925     0.083     1.948     2.183
    59   1 H        0.924     0.049     2.328     2.386
    60   1 H        0.924     0.054     2.275     2.359
    61   1 H        0.926     0.048     2.345     2.395
    62   1 H        0.924     0.080     1.978     2.199
    63   1 H        0.924     0.080     1.975     2.198
    64   1 H        0.925     0.081     1.970     2.195
    65   1 H        0.924     0.047     2.363     2.404
    66   1 H        0.925     0.069     2.094     2.263
    67   1 H        0.925     0.036     2.498     2.472
    68   1 H        0.925     0.052     2.292     2.367
    69   1 H        0.925     0.060     2.198     2.319
    70   1 H        0.925     0.037     2.488     2.467
    71   1 H        0.925     0.056     2.248     2.345
    72   1 H        0.860     0.158     1.351     1.821

Wiberg/Mayer (AO) data.
largest (>0.10) Wiberg bond orders for each atom

     #   Z sym  total        # sym  WBO       # sym  WBO       # sym  WBO
 ---------------------------------------------------------------------------
     1   7 N    3.037 --     2 C    1.955    72 H    0.941
     2   6 C    3.931 --     1 N    1.955     3 C    1.000    47 H    0.900
     3   6 C    3.961 --     2 C    1.000     4 C    0.959    14 C    0.954
                            31 C    0.939
     4   6 C    3.915 --     5 C    1.400    13 C    1.356     3 C    0.959
     5   6 C    3.040 --     6 C    1.401     4 C    1.400
     6   6 C    3.864 --     5 C    1.401     9 C    1.184     7 O    1.084
     7   8 O    2.273 --     6 C    1.084     8 C    1.020
     8   6 C    3.711 --     7 O    1.020    36 H    0.969    35 H    0.960
                            37 H    0.715
     9   6 C    3.840 --    12 C    1.383     6 C    1.184    10 O    1.105
    10   8 O    2.248 --     9 C    1.105    11 C    0.973
    11   6 C    3.925 --    39 H    0.976    40 H    0.974    38 H    0.973
                            10 O    0.973
    12   6 C    3.954 --    13 C    1.414     9 C    1.383    41 H    0.959
    13   6 C    3.887 --    12 C    1.414     4 C    1.356    42 H    0.955
    14   6 C    3.969 --    15 C    0.980    44 H    0.973    43 H    0.966
                             3 C    0.954
    15   6 C    3.984 --    16 C    1.064    14 C    0.980    45 H    0.959
                            46 H    0.921
    16   6 C    3.622 --    17 N    1.420    15 C    1.064    48 H    0.956
    17   7 N    3.499 --    16 C    1.420    30 C    0.997    18 C    0.987
    18   6 C    3.955 --    17 N    0.987    50 H    0.968    19 C    0.967
                            49 H    0.963
    19   6 C    3.977 --    20 C    1.008    51 H    0.972    52 H    0.971
                            18 C    0.967
    20   6 C    3.941 --    21 C    1.407    29 C    1.381    19 C    1.008
    21   6 C    3.947 --    22 C    1.419    20 C    1.407    53 H    0.968
    22   6 C    3.957 --    21 C    1.419    23 C    1.381    54 H    0.963
    23   6 C    3.892 --    22 C    1.381    26 C    1.217    24 O    1.114
    24   8 O    2.256 --    23 C    1.114    25 C    0.975
    25   6 C    3.927 --    57 H    0.977    24 O    0.975    55 H    0.972
                            56 H    0.972
    26   6 C    3.895 --    29 C    1.393    23 C    1.217    27 O    1.107
    27   8 O    2.255 --    26 C    1.107    28 C    0.978
    28   6 C    3.931 --    27 O    0.978    58 H    0.977    59 H    0.973
                            60 H    0.973
    29   6 C    3.957 --    26 C    1.393    20 C    1.381    61 H    0.962
    30   6 C    3.956 --    17 N    0.997    64 H    0.978    62 H    0.966
                            63 H    0.960
    31   6 C    3.964 --    33 C    1.009    32 C    1.008    65 H    0.955
                             3 C    0.939
    32   6 C    3.974 --    31 C    1.008    67 H    0.981    68 H    0.980
                            66 H    0.972
    33   6 C    3.980 --    31 C    1.009    70 H    0.982    71 H    0.979
                            69 H    0.976
    34   1 H    0.337 --    37 H    0.253
    35   1 H    0.985 --     8 C    0.960
    36   1 H    0.987 --     8 C    0.969
    37   1 H    0.981 --     8 C    0.715    34 H    0.253
    38   1 H    0.992 --    11 C    0.973
    39   1 H    0.992 --    11 C    0.976
    40   1 H    0.993 --    11 C    0.974
    41   1 H    0.990 --    12 C    0.959
    42   1 H    0.986 --    13 C    0.955
    43   1 H    0.993 --    14 C    0.966
    44   1 H    0.996 --    14 C    0.973
    45   1 H    0.994 --    15 C    0.959
    46   1 H    0.969 --    15 C    0.921
    47   1 H    0.985 --     2 C    0.900
    48   1 H    0.994 --    16 C    0.956
    49   1 H    0.990 --    18 C    0.963
    50   1 H    0.995 --    18 C    0.968
    51   1 H    0.995 --    19 C    0.972
    52   1 H    0.996 --    19 C    0.971
    53   1 H    0.997 --    21 C    0.968
    54   1 H    0.995 --    22 C    0.963
    55   1 H    0.991 --    25 C    0.972
    56   1 H    0.991 --    25 C    0.972
    57   1 H    0.992 --    25 C    0.977
    58   1 H    0.992 --    28 C    0.977
    59   1 H    0.993 --    28 C    0.973
    60   1 H    0.992 --    28 C    0.973
    61   1 H    0.996 --    29 C    0.962
    62   1 H    0.985 --    30 C    0.966
    63   1 H    0.987 --    30 C    0.960
    64   1 H    0.993 --    30 C    0.978
    65   1 H    0.989 --    31 C    0.955
    66   1 H    0.989 --    32 C    0.972
    67   1 H    0.996 --    32 C    0.981
    68   1 H    0.993 --    32 C    0.980
    69   1 H    0.992 --    33 C    0.976
    70   1 H    0.996 --    33 C    0.982
    71   1 H    0.993 --    33 C    0.979
    72   1 H    0.969 --     1 N    0.941
 ---------------------------------------------------------------------------

molecular dipole:
                 x           y           z       tot (Debye)
 q only:        1.128      -0.087      -0.323
   full:        1.496      -0.338      -0.290       3.967

           -------------------------------------------------
          | TOTAL ENERGY              -99.250628133367 Eh   |
          | GRADIENT NORM               0.001990115209 Eh/α |
          | HOMO-LUMO GAP               0.208989074085 eV   |
           -------------------------------------------------

 * finished run on 2024/04/06 at 11:12:17.712
