   * xtb version 6.6.1 (8d0f1dd) compiled by 'conda@1efc2f54142f' on 2023-08-01
          program call               : xtb xtbopt.xyz --opt crude --input .xc2 --gfn2

   ID    Z sym.   atoms
    1    6 C      1, 3, 5-7, 10, 11, 14
    2    7 N      2, 4, 9, 13
    3    8 O      8, 12
    4    1 H      15-25
########################################################################
[WARNING] Please study the warnings concerning your input carefully
-1- readin_getIntValue: could not parse ''
########################################################################

          :  Hamiltonian                  GFN2-xTB          :
 * total energy  :   -42.1662833 Eh     change       -0.4973799E-12 Eh
   *** GEOMETRY OPTIMIZATION CONVERGED AFTER 1 ITERATIONS ***

 final structure:
================
25
 xtb: 6.6.1 (8d0f1dd)
C            2.92131730251516        1.25189526345323       -0.19798097323719
N            2.21402718473892        0.00279950199358       -0.16392819074777
C            2.78222796866719       -1.19139027131326       -0.25977121487697
N            1.84761870131740       -2.14364561628519       -0.18359177283237
C            0.58783699638649       -1.57981792984257       -0.00259721951656
C            0.82704864533708       -0.15209858216788       -0.05082707604949
C            0.03038301201795        1.00395476254044        0.10020521107127
O            0.36325116748493        2.11077122313605        0.45588085994545
N           -1.45295594214788        0.88698718280623       -0.32753994747151
C           -2.39469722993463        1.42189040509659        0.66647735444428
C           -1.68361501690779        0.95336903908366       -1.56356263068258
O           -1.78170158534999        0.96588394862200       -2.71574021470597
N           -0.38288016278699       -2.38361511816785        0.23506668021413
C           -1.72610031495052       -2.09551016131528        0.55468038006235
H            2.76307584467260        1.80188401199574        0.73104009172743
H            3.98337561898817        1.05934134702004       -0.33146838274602
H            2.56104974610436        1.87486221785792       -1.01777099874981
H            3.83408327872543       -1.36064639872357       -0.38460043795797
H           -2.09696915072175        2.43757099712020        0.93291239032809
H           -3.40317399009407        1.42712282523161        0.26170465893688
H           -2.35302272241922        0.79543914986511        1.55550980281928
H           -1.80934274043679       -1.32789736891652        1.33050954964896
H           -2.16924165336767       -3.01949678971701        0.92839894503538
H           -2.29500614128485       -1.77947645873991       -0.32641029362265
H            1.99384269755030       -3.14193863903646       -0.19542495313726

          :  Hamiltonian                  GFN2-xTB          :
         :: total energy             -42.166283265289 Eh    ::
         :: gradient norm              0.005915382111 Eh/a0 ::
         :: HOMO-LUMO gap              2.008626072448 eV    ::
         :: SCC energy               -42.715842966515 Eh    ::
         :: -> dispersion             -0.022255811213 Eh    ::
         :: repulsion energy           0.549297083135 Eh    ::

    * Orbital Energies and Occupations

         #    Occupation            Energy/Eh            Energy/eV
      -------------------------------------------------------------
         1        2.0000           -0.9253006             -25.1787
       ...           ...                  ...                  ...
        25        1.9995           -0.6732540             -18.3202
        26        1.9994           -0.6704773             -18.2446
        27        1.9990           -0.6579263             -17.9031
        28        1.9986           -0.6485828             -17.6488
        29        1.9978           -0.6382076             -17.3665
        30        1.9971           -0.6324116             -17.2088
        31        1.9956           -0.6218829             -16.9223
        32        1.9905           -0.6038472             -16.4315
        33        1.9875           -0.5971738             -16.2499
        34        1.9856           -0.5938210             -16.1587
        35        1.9774           -0.5830784             -15.8664
        36        1.7869           -0.5273594             -14.3502
        37        1.6728           -0.5156047             -14.0303 (HOMO)
        38        0.3720           -0.4417891             -12.0217 (LUMO)
        39        0.1736           -0.4209640             -11.4550
        40        0.0366           -0.3822610             -10.4018
        41        0.0300           -0.3774721             -10.2715
        42        0.0020           -0.3124857              -8.5032
        43        0.0001           -0.2304454              -6.2707
        44        0.0000           -0.1695528              -4.6138
        45        0.0000           -0.1292545              -3.5172
        46        0.0000           -0.0893541              -2.4314
        47                         -0.0645595              -1.7568
        48                         -0.0396757              -1.0796
       ...                                ...                  ...
        67                          0.9459138              25.7396
      -------------------------------------------------------------
                  HL-Gap            0.0738156 Eh            2.0086 eV

     #   Z          covCN         q      C6AA      α(0)
     1   6 C        3.693    -0.082    22.258     6.750
     2   7 N        2.820     0.059    20.206     6.676
     3   6 C        2.967     0.064    26.564     8.454
     4   7 N        2.798    -0.069    22.571     7.056
     5   6 C        2.940     0.139    24.976     8.196
     6   6 C        3.037    -0.039    28.922     8.821
     7   6 C        2.759     0.247    22.864     7.830
     8   8 O        0.857    -0.339    20.501     6.071
     9   7 N        2.715    -0.052    22.252     7.006
    10   6 C        3.702    -0.060    21.808     6.677
    11   6 C        1.805     0.301    24.385     7.980
    12   8 O        0.856    -0.138    17.092     5.543
    13   7 N        1.834    -0.204    26.267     7.595
    14   6 C        3.691    -0.036    21.407     6.621
    15   1 H        0.924     0.121     1.606     1.982
    16   1 H        0.925     0.097     1.815     2.107
    17   1 H        0.924     0.105     1.738     2.061
    18   1 H        0.926     0.115     1.658     2.013
    19   1 H        0.924     0.116     1.643     2.004
    20   1 H        0.925     0.096     1.820     2.110
    21   1 H        0.925     0.098     1.803     2.100
    22   1 H        0.924     0.060     2.195     2.317
    23   1 H        0.924     0.102     1.768     2.080
    24   1 H        0.924     0.069     2.102     2.267
    25   1 H        0.860     0.231     0.962     1.536

Wiberg/Mayer (AO) data.
largest (>0.10) Wiberg bond orders for each atom

     #   Z sym  total        # sym  WBO       # sym  WBO       # sym  WBO
 ---------------------------------------------------------------------------
     1   6 C    3.921 --     2 N    0.995    16 H    0.972    17 H    0.957
                            15 H    0.952
     2   7 N    3.611 --     3 C    1.365     6 C    1.103     1 C    0.995
     3   6 C    3.792 --     2 N    1.365     4 N    1.308    18 H    0.951
     4   7 N    3.529 --     3 C    1.308     5 C    1.100    25 H    0.919
     5   6 C    3.912 --    13 N    1.541     6 C    1.141     4 N    1.100
     6   6 C    3.743 --     7 C    1.214     5 C    1.141     2 N    1.103
     7   6 C    3.774 --     8 O    1.697     6 C    1.214     9 N    0.748
     8   8 O    1.987 --     7 C    1.697
     9   7 N    3.502 --    11 C    1.518    10 C    0.925     7 C    0.748
                            12 O    0.211
    10   6 C    3.879 --    20 H    0.975    21 H    0.967    19 H    0.960
                             9 N    0.925
    11   6 C    3.639 --    12 O    2.027     9 N    1.518
    12   8 O    2.314 --    11 C    2.027     9 N    0.211
    13   7 N    2.789 --     5 C    1.541    14 C    1.058
    14   6 C    3.925 --    13 N    1.058    23 H    0.952    22 H    0.941
                            24 H    0.939
    15   1 H    0.977 --     1 C    0.952
    16   1 H    0.987 --     1 C    0.972
    17   1 H    0.981 --     1 C    0.957
    18   1 H    0.985 --     3 C    0.951
    19   1 H    0.982 --    10 C    0.960
    20   1 H    0.988 --    10 C    0.975
    21   1 H    0.987 --    10 C    0.967
    22   1 H    0.962 --    14 C    0.941
    23   1 H    0.964 --    14 C    0.952
    24   1 H    0.961 --    14 C    0.939
    25   1 H    0.945 --     4 N    0.919
 ---------------------------------------------------------------------------

molecular dipole:
                 x           y           z       tot (Debye)
 q only:        1.084      -0.947      -0.024
   full:        1.120      -0.926      -0.116       3.706

           -------------------------------------------------
          | TOTAL ENERGY              -42.166283265289 Eh   |
          | GRADIENT NORM               0.005915382111 Eh/α |
          | HOMO-LUMO GAP               2.008626072448 eV   |
           -------------------------------------------------

 * finished run on 2024/06/05 at 19:58:56.211
