   * xtb version 6.6.1 (8d0f1dd) compiled by 'conda@1efc2f54142f' on 2023-08-01
          program call               : xtb struc.xyz --opt loose --input .xc1 --gfn2

   ID    Z sym.   atoms
    1    6 C      1, 3, 5-7, 10, 11, 14
    2    7 N      2, 4, 9, 13
    3    8 O      8, 12
    4    1 H      15-25
constraining bond 6 19 to    4.7133300 Å, actual value:    3.8841935 Å

          :  Hamiltonian                  GFN2-xTB          :
 * total energy  :   -44.7028487 Eh     change       -0.6650680E-10 Eh
 * total energy  :   -50.8727264 Eh     change       -0.6169878E+01 Eh
 * total energy  :   -60.1761332 Eh     change       -0.9303407E+01 Eh
 * total energy  :   -72.0177427 Eh     change       -0.1184161E+02 Eh
 * total energy  :   -86.1400839 Eh     change       -0.1412234E+02 Eh
 * total energy  :  -101.8690323 Eh     change       -0.1572895E+02 Eh
 * total energy  :   -94.9730167 Eh     change        0.6896016E+01 Eh
 * total energy  :   -93.9126579 Eh     change        0.1060359E+01 Eh
 * total energy  :   -96.9594476 Eh     change       -0.3046790E+01 Eh
 * total energy  :  -107.2413132 Eh     change       -0.1028187E+02 Eh
 * total energy  :  -107.6952797 Eh     change       -0.1158161E-03 Eh
 * total energy  :  -107.6953794 Eh     change       -0.9966630E-04 Eh
 * total energy  :  -107.6954739 Eh     change       -0.9452339E-04 Eh
 * total energy  :  -107.6955519 Eh     change       -0.7794437E-04 Eh
 * total energy  :  -107.6954827 Eh     change        0.6918637E-04 Eh
 * total energy  :  -107.6956682 Eh     change       -0.1855245E-03 Eh
 * total energy  :  -107.6633847 Eh     change        0.3228346E-01 Eh
 * total energy  :  -107.6957221 Eh     change       -0.3233733E-01 Eh
 * total energy  :  -107.6957597 Eh     change       -0.3763479E-04 Eh
   *** GEOMETRY OPTIMIZATION CONVERGED AFTER 70 ITERATIONS ***

 final structure:
================
25
 xtb: 6.6.1 (8d0f1dd)
C            3.93315880359776        0.82567191378066        0.16077373399125
N            2.65421250818154        0.21917096003970        0.11461859912964
C            2.46356360686202       -1.02473764430629        0.04487553024157
N            1.19872733306845       -1.54859823089828       -0.00668592278573
C            0.07144289046848       -0.78246860001789        0.04270100077091
C            0.01996664654845        0.62185309961988        0.22601571154144
C           -1.69150564237847        3.05543663627964       -0.59979113607185
O           -1.20911909467236        3.74550888768597       -1.38374879464689
N           -1.41773987017487        0.82104571849301        0.19110834211902
C           -2.10411635419436        2.08606735143202        0.35455205454640
C           -2.12959162961062       -0.34610803092599       -0.00408773490172
O           -3.32651197544766       -0.44588196696157       -0.07921430999563
N           -1.17208198121238       -1.33773139490478       -0.08364369713130
C           -1.50503890111502       -2.72742408149881       -0.27518492620770
H            3.96685806044773        1.48748198387052        1.02749058270728
H            4.75636917534160        0.10459376393993        0.21696049835287
H            4.05460070758395        1.44322304181260       -0.73100427951824
H            3.25685514807033       -1.77863965704056        0.01635601566777
H            0.21473250161717        0.82638401615222        0.26164071913872
H           -3.18102704058285        1.85454860547230        0.23770931225408
H           -1.95584739445032        2.49108132173127        1.37072955908588
H           -1.14248094509509       -3.33192351808120        0.55747546858360
H           -1.09680373326936       -3.09975722395290       -1.21601600399196
H           -2.59221950602358       -2.79168825505167       -0.31132231477767
H            1.09402820053745       -2.54887015507127       -0.10113639021145

          :  Hamiltonian                  GFN2-xTB          :
         :: total energy            -107.695759695941 Eh    ::
         :: gradient norm              0.002339261871 Eh/a0 ::
         :: HOMO-LUMO gap              1.440301672172 eV    ::
         :: SCC energy               -42.681605853120 Eh    ::
         :: -> dispersion             -0.020486801920 Eh    ::
         :: repulsion energy           5.025226764683 Eh    ::

    * Orbital Energies and Occupations

         #    Occupation            Energy/Eh            Energy/eV
      -------------------------------------------------------------
         1        2.0000           -0.9473684             -25.7792
       ...           ...                  ...                  ...
        25        2.0000           -0.6569738             -17.8772
        26        2.0000           -0.6537047             -17.7882
        27        1.9999           -0.6470036             -17.6059
        28        1.9999           -0.6386359             -17.3782
        29        1.9999           -0.6355353             -17.2938
        30        1.9995           -0.6166672             -16.7804
        31        1.9994           -0.6127510             -16.6738
        32        1.9991           -0.6067316             -16.5100
        33        1.9970           -0.5873853             -15.9836
        34        1.9905           -0.5691013             -15.4860
        35        1.9691           -0.5503195             -14.9750
        36        1.8290           -0.5220754             -14.2064
        37        1.7097           -0.5126223             -13.9492 (HOMO)
        38        0.3445           -0.4596922             -12.5089 (LUMO)
        39        0.1584           -0.4457010             -12.1281
        40        0.0039           -0.3859311             -10.5017
        41        0.0002           -0.3414454              -9.2912
        42        0.0001           -0.3222392              -8.7686
        43                         -0.2016665              -5.4876
        44                         -0.1606276              -4.3709
        45                         -0.1049661              -2.8563
        46                         -0.0910450              -2.4775
        47                         -0.0639870              -1.7412
        48                         -0.0531361              -1.4459
       ...                                ...                  ...
        67                         25.6939946             699.1692
      -------------------------------------------------------------
                  HL-Gap            0.0529301 Eh            1.4403 eV

     #   Z          covCN         q      C6AA      α(0)
     1   6 C        3.707    -0.044    21.512     6.630
     2   7 N        1.832    -0.181    25.738     7.518
     3   6 C        2.785     0.118    25.383     8.253
     4   7 N        2.697    -0.103    23.259     7.163
     5   6 C        3.056     0.111    25.500     8.281
     6   6 C        2.865    -0.128    31.271     9.166
     7   6 C        1.843     0.256    25.240     8.116
     8   8 O        0.856    -0.046    15.738     5.319
     9   7 N        2.881    -0.092    23.027     7.127
    10   6 C        3.740    -0.012    20.870     6.518
    11   6 C        2.808     0.304    21.837     7.656
    12   8 O        0.857    -0.398    21.645     6.238
    13   7 N        2.799    -0.063    22.462     7.039
    14   6 C        3.689    -0.066    21.961     6.707
    15   1 H        0.924     0.091     1.871     2.139
    16   1 H        0.924     0.061     2.183     2.311
    17   1 H        0.924     0.091     1.868     2.138
    18   1 H        0.924     0.060     2.205     2.322
    19   1 H        1.010     0.205     1.070     1.616
    20   1 H        0.922     0.186     1.172     1.693
    21   1 H        0.923     0.159     1.335     1.807
    22   1 H        0.924     0.081     1.969     2.195
    23   1 H        0.924     0.082     1.963     2.191
    24   1 H        0.925     0.117     1.641     2.003
    25   1 H        0.860     0.212     1.045     1.601

Wiberg/Mayer (AO) data.
largest (>0.10) Wiberg bond orders for each atom

     #   Z sym  total        # sym  WBO       # sym  WBO       # sym  WBO
 ---------------------------------------------------------------------------
     1   6 C    3.938 --     2 N    1.050    16 H    0.953    15 H    0.949
                            17 H    0.946
     2   7 N    2.990 --     3 C    1.755     1 C    1.050
     3   6 C    3.938 --     2 N    1.755     4 N    1.156    18 H    0.923
     4   7 N    3.465 --     5 C    1.163     3 C    1.156    25 H    0.922
     5   6 C    3.906 --     6 C    1.432    13 N    1.173     4 N    1.163
     6   6 C    3.689 --     5 C    1.432     9 N    1.073    19 H    0.937
     7   6 C    3.397 --     8 O    2.186    10 C    1.126
     8   8 O    2.329 --     7 C    2.186
     9   7 N    3.426 --    11 C    1.105     6 C    1.073    10 C    0.968
                            12 O    0.136
    10   6 C    3.950 --     7 C    1.126     9 N    0.968    21 H    0.888
                            20 H    0.877
    11   6 C    3.945 --    12 O    1.639     9 N    1.105    13 N    1.102
    12   8 O    1.970 --    11 C    1.639     9 N    0.136    13 N    0.127
    13   7 N    3.544 --     5 C    1.173    11 C    1.102    14 C    0.984
                            12 O    0.127
    14   6 C    3.933 --    13 N    0.984    22 H    0.969    23 H    0.969
                            24 H    0.968
    15   1 H    0.978 --     1 C    0.949
    16   1 H    0.965 --     1 C    0.953
    17   1 H    0.979 --     1 C    0.946
    18   1 H    0.969 --     3 C    0.923
    19   1 H    0.958 --     6 C    0.937
    20   1 H    0.948 --    10 C    0.877
    21   1 H    0.955 --    10 C    0.888
    22   1 H    0.990 --    14 C    0.969
    23   1 H    0.989 --    14 C    0.969
    24   1 H    0.986 --    14 C    0.968
    25   1 H    0.954 --     4 N    0.922
 ---------------------------------------------------------------------------

molecular dipole:
                 x           y           z       tot (Debye)
 q only:        0.475       0.624       0.264
   full:        0.735       0.162       0.294       2.053

           -------------------------------------------------
          | TOTAL ENERGY             -107.695759695941 Eh   |
          | GRADIENT NORM               0.002339261871 Eh/α |
          | HOMO-LUMO GAP               1.440301672172 eV   |
           -------------------------------------------------

 * finished run on 2024/06/05 at 19:58:07.448
