   * xtb version 6.6.1 (8d0f1dd) compiled by 'conda@1efc2f54142f' on 2023-08-01
          program call               : xtb struc.xyz --opt loose --input .xc1 --gfn2

   ID    Z sym.   atoms
    1    6 C      1, 3, 5-7, 10, 11, 14
    2    7 N      2, 4, 9, 13
    3    8 O      8, 12
    4    1 H      15-25
constraining bond 6 18 to    5.1400000 Å, actual value:    3.2169490 Å

          :  Hamiltonian                  GFN2-xTB          :
 * total energy  :   -35.6421624 Eh     change       -0.6633627E-10 Eh
 * total energy  :   -38.6363805 Eh     change       -0.2994218E+01 Eh
 * total energy  :   -40.5666874 Eh     change       -0.1930307E+01 Eh
 * total energy  :   -41.5237494 Eh     change       -0.9570619E+00 Eh
 * total energy  :   -41.8316080 Eh     change       -0.3078587E+00 Eh
 * total energy  :   -41.8752677 Eh     change       -0.4365969E-01 Eh
 * total energy  :   -41.8962765 Eh     change       -0.2100875E-01 Eh
 * total energy  :   -41.9263970 Eh     change       -0.3012058E-01 Eh
 * total energy  :   -41.9474026 Eh     change       -0.2100553E-01 Eh
 * total energy  :   -41.9651802 Eh     change       -0.1777764E-01 Eh
 * total energy  :   -42.0558309 Eh     change       -0.1962123E-02 Eh
 * total energy  :   -42.0569826 Eh     change       -0.1151639E-02 Eh
 * total energy  :   -42.0580299 Eh     change       -0.1047381E-02 Eh
 * total energy  :   -42.0587130 Eh     change       -0.6831129E-03 Eh
 * total energy  :   -42.0603388 Eh     change       -0.1625742E-02 Eh
 * total energy  :   -42.0607592 Eh     change       -0.4203806E-03 Eh
 * total energy  :   -42.0608730 Eh     change       -0.1138601E-03 Eh
 * total energy  :   -42.0609501 Eh     change       -0.7704160E-04 Eh
 * total energy  :   -42.0609666 Eh     change       -0.1657027E-04 Eh
   *** GEOMETRY OPTIMIZATION CONVERGED AFTER 26 ITERATIONS ***

 final structure:
================
25
 xtb: 6.6.1 (8d0f1dd)
C            3.15506075517846        1.19952374034727        0.01703027158595
N            2.20980688384797        0.11599412552181       -0.00076267923925
C            2.51870337325117       -1.18812421890889       -0.00719074528838
N            1.35674171945867       -1.88051001901911       -0.00724469049258
C            0.30211752676955       -1.01286857852304        0.00041665417668
C            0.84152647136311        0.26976140025866        0.00637349473011
C            0.00408882487981        1.45126165191866       -0.00187831791937
O            0.38875125291289        2.59513203841808       -0.01452811693923
N           -1.34869810455251        1.10861696451138        0.00207431674279
C           -2.31633381920505        2.19765623935168        0.00000052110035
C           -1.90707323079169       -0.15546676036673        0.00380775363885
O           -3.09232859443273       -0.33681909513946        0.00612555337308
N           -1.01662073694960       -1.25520816050641        0.00130087133427
C           -1.55915876173454       -2.59603629273225       -0.00351231095547
H            3.65440128144892        1.24578142588089        0.98595563503409
H            3.90907975901506        1.04645941293216       -0.75365549453211
H            2.62826033200801        2.13700729800782       -0.15592435067660
H            4.92769372196418       -2.84177293414032       -0.01920181832889
H           -1.77158831870834        3.13833195861614        0.00838121776561
H           -2.94486440822810        2.13172539859903       -0.88810033410720
H           -2.95769590246503        2.12214400811044        0.87802418560039
H           -1.23236621261368       -3.14164621006972        0.88265056622866
H           -1.24735204056248       -3.12975553056130       -0.90235311175215
H           -2.64551445812601       -2.51464877070415        0.00572990294136
H            1.30379420037196       -2.88830055020259       -0.01234735612096

          :  Hamiltonian                  GFN2-xTB          :
         :: total energy             -42.060966643939 Eh    ::
         :: gradient norm              0.001543284201 Eh/a0 ::
         :: HOMO-LUMO gap              0.505691435636 eV    ::
         :: SCC energy               -42.566157412469 Eh    ::
         :: -> dispersion             -0.022554454808 Eh    ::
         :: repulsion energy           0.505069114407 Eh    ::

    * Orbital Energies and Occupations

         #    Occupation            Energy/Eh            Energy/eV
      -------------------------------------------------------------
         1        2.0000           -0.8964379             -24.3933
       ...           ...                  ...                  ...
        25        2.0000           -0.6652079             -18.1012
        26        2.0000           -0.6628276             -18.0365
        27        2.0000           -0.6364860             -17.3197
        28        2.0000           -0.6320933             -17.2001
        29        1.9999           -0.6233201             -16.9614
        30        1.9999           -0.6162789             -16.7698
        31        1.9995           -0.6052620             -16.4700
        32        1.9994           -0.6047413             -16.4558
        33        1.9957           -0.5885556             -16.0154
        34        1.9737           -0.5741273             -15.6228
        35        1.9460           -0.5683145             -15.4646
        36        1.8146           -0.5579934             -15.1838
        37        1.6499           -0.5522100             -15.0264 (HOMO)
        38        0.6214           -0.5336262             -14.5207 (LUMO)
        39        0.0000           -0.4208116             -11.4509
        40                         -0.3920183             -10.6674
        41                         -0.3736921             -10.1687
        42                         -0.2923603              -7.9555
        43                         -0.2090909              -5.6897
        44                         -0.1683932              -4.5822
        45                         -0.1423322              -3.8731
        46                         -0.1294593              -3.5228
        47                         -0.0692926              -1.8855
        48                         -0.0371450              -1.0108
       ...                                ...                  ...
        67                          0.5501146              14.9694
      -------------------------------------------------------------
                  HL-Gap            0.0185838 Eh            0.5057 eV

     #   Z          covCN         q      C6AA      α(0)
     1   6 C        3.692    -0.085    22.319     6.760
     2   7 N        2.851     0.077    19.899     6.625
     3   6 C        2.059    -0.052    32.355     9.188
     4   7 N        2.808    -0.062    22.439     7.035
     5   6 C        3.019     0.118    25.390     8.265
     6   6 C        3.079    -0.010    28.180     8.703
     7   6 C        2.764     0.275    22.346     7.742
     8   8 O        0.858    -0.341    20.540     6.076
     9   7 N        2.746    -0.079    22.771     7.087
    10   6 C        3.710    -0.062    21.834     6.678
    11   6 C        2.728     0.319    21.580     7.605
    12   8 O        0.860    -0.343    20.571     6.081
    13   7 N        2.738    -0.044    22.085     6.980
    14   6 C        3.697    -0.071    22.033     6.714
    15   1 H        0.924     0.107     1.723     2.053
    16   1 H        0.925     0.107     1.726     2.055
    17   1 H        0.925     0.121     1.605     1.981
    18   1 H        0.000     0.172     3.121     3.230
    19   1 H        0.925     0.116     1.650     2.009
    20   1 H        0.925     0.104     1.751     2.069
    21   1 H        0.925     0.104     1.749     2.068
    22   1 H        0.924     0.092     1.859     2.132
    23   1 H        0.924     0.092     1.856     2.131
    24   1 H        0.925     0.129     1.545     1.944
    25   1 H        0.860     0.217     1.025     1.586

Wiberg/Mayer (AO) data.
largest (>0.10) Wiberg bond orders for each atom

     #   Z sym  total        # sym  WBO       # sym  WBO       # sym  WBO
 ---------------------------------------------------------------------------
     1   6 C    3.915 --     2 N    0.995    17 H    0.962    16 H    0.960
                            15 H    0.952
     2   7 N    3.653 --     3 C    1.357     6 C    1.178     1 C    0.995
     3   6 C    2.994 --     2 N    1.357     4 N    1.294    18 H    0.174
     4   7 N    3.590 --     3 C    1.294     5 C    1.189    25 H    0.924
     5   6 C    3.908 --     6 C    1.314    13 N    1.226     4 N    1.189
     6   6 C    3.821 --     5 C    1.314     2 N    1.178     7 C    1.063
     7   6 C    3.953 --     8 O    1.694     9 N    1.099     6 C    1.063
     8   8 O    2.012 --     7 C    1.694     9 N    0.138
     9   7 N    3.537 --    11 C    1.128     7 C    1.099    10 C    0.970
                             8 O    0.138    12 O    0.131
    10   6 C    3.899 --     9 N    0.970    19 H    0.968    21 H    0.958
                            20 H    0.958
    11   6 C    3.955 --    12 O    1.706     9 N    1.128    13 N    1.030
    12   8 O    2.025 --    11 C    1.706     9 N    0.131    13 N    0.106
    13   7 N    3.488 --     5 C    1.226    11 C    1.030    14 C    0.980
                            12 O    0.106
    14   6 C    3.913 --    13 N    0.980    24 H    0.964    22 H    0.961
                            23 H    0.961
    15   1 H    0.979 --     1 C    0.952
    16   1 H    0.982 --     1 C    0.960
    17   1 H    0.982 --     1 C    0.962
    18   1 H    0.199 --     3 C    0.174
    19   1 H    0.986 --    10 C    0.968
    20   1 H    0.977 --    10 C    0.958
    21   1 H    0.977 --    10 C    0.958
    22   1 H    0.978 --    14 C    0.961
    23   1 H    0.978 --    14 C    0.961
    24   1 H    0.983 --    14 C    0.964
    25   1 H    0.952 --     4 N    0.924
 ---------------------------------------------------------------------------

molecular dipole:
                 x           y           z       tot (Debye)
 q only:        2.471      -2.174       0.004
   full:        2.292      -2.463       0.010       8.552

           -------------------------------------------------
          | TOTAL ENERGY              -42.060966643939 Eh   |
          | GRADIENT NORM               0.001543284201 Eh/α |
          | HOMO-LUMO GAP               0.505691435636 eV   |
           -------------------------------------------------

 * finished run on 2024/06/05 at 19:58:00.531
