   * xtb version 6.6.1 (8d0f1dd) compiled by 'conda@1efc2f54142f' on 2023-08-01
          program call               : xtb xtbopt.xyz --opt crude --input .xc2 --gfn2

   ID    Z sym.   atoms
    1    6 C      1, 3, 5-7, 10, 11, 14
    2    7 N      2, 4, 9, 13
    3    8 O      8, 12
    4    1 H      15-25

          :  Hamiltonian                  GFN2-xTB          :
 * total energy  :   -42.0609944 Eh     change       -0.2699352E-10 Eh
 * total energy  :   -42.0684556 Eh     change       -0.7461219E-02 Eh
 * total energy  :   -42.0927693 Eh     change       -0.2431368E-01 Eh
 * total energy  :   -42.1515448 Eh     change       -0.5877549E-01 Eh
 * total energy  :   -42.2329451 Eh     change       -0.8140033E-01 Eh
 * total energy  :   -42.1504207 Eh     change        0.8252449E-01 Eh
 * total energy  :   -42.2439925 Eh     change       -0.9357183E-01 Eh
 * total energy  :   -42.2436951 Eh     change        0.2973756E-03 Eh
 * total energy  :   -42.2450455 Eh     change       -0.1350361E-02 Eh
 * total energy  :   -42.2452562 Eh     change       -0.2107371E-03 Eh
   *** GEOMETRY OPTIMIZATION CONVERGED AFTER 10 ITERATIONS ***

 final structure:
================
25
 xtb: 6.6.1 (8d0f1dd)
C            3.21463757111927        1.13577190908713        0.01689620688066
N            2.27522937188260        0.04474120434373       -0.00044437541294
C            2.54166624934203       -1.24769989737151       -0.00827320915387
N            1.39153390165792       -1.95563944682963       -0.00783544523740
C            0.35293928810638       -1.06949431278185        0.00044797614906
C            0.91182053340035        0.19704374028661        0.00560648940423
C            0.08261625726546        1.39636993565408       -0.00303140338125
O            0.49278098315204        2.52996953225704       -0.01714151467521
N           -1.26658090299730        1.06760809481893        0.00203162787704
C           -2.22628466627221        2.16778388769668       -0.00048100545609
C           -1.84571900676026       -0.18886225364155        0.00433491721270
O           -3.03015236889352       -0.35576497575786        0.00712294043606
N           -0.96587989834529       -1.29949603028279        0.00138234048130
C           -1.52611526383179       -2.63706198580324       -0.00327427000883
H            3.70909137157476        1.19381595399057        0.98733312765288
H            3.97103151304252        1.00078345622206       -0.75461773773745
H            2.67079149112112        2.06421050813304       -0.15511978441157
H            3.52592465437881       -1.67596595895391       -0.01285793954271
H           -1.67261073550754        3.10237029105967        0.00755176560189
H           -2.85243543813163        2.10641862733717       -0.88928501219321
H           -2.86512628829772        2.09759816082166        0.87851984523607
H           -1.21509062436709       -3.18561463407940        0.88572403890944
H           -1.22852437198495       -3.17410436023367       -0.90392290178629
H           -2.61054820687552       -2.53236764392579        0.00534008925219
H            1.32543610031879       -2.96417526044964       -0.01483514819709

          :  Hamiltonian                  GFN2-xTB          :
         :: total energy             -42.245256203412 Eh    ::
         :: gradient norm              0.002758978541 Eh/a0 ::
         :: HOMO-LUMO gap              3.237574235641 eV    ::
         :: SCC energy               -42.776557701734 Eh    ::
         :: -> dispersion             -0.022666133798 Eh    ::
         :: repulsion energy           0.531186840682 Eh    ::

    * Orbital Energies and Occupations

         #    Occupation            Energy/Eh            Energy/eV
      -------------------------------------------------------------
         1        2.0000           -0.9218447             -25.0847
       ...           ...                  ...                  ...
        25        2.0000           -0.6686352             -18.1945
        26        2.0000           -0.6639408             -18.0667
        27        2.0000           -0.6556947             -17.8424
        28        2.0000           -0.6378283             -17.3562
        29        2.0000           -0.6305746             -17.1588
        30        2.0000           -0.6250436             -17.0083
        31        2.0000           -0.6244704             -16.9927
        32        2.0000           -0.6187921             -16.8382
        33        2.0000           -0.5946612             -16.1816
        34        1.9999           -0.5766579             -15.6917
        35        1.9996           -0.5615853             -15.2815
        36        1.9994           -0.5585255             -15.1983
        37        1.9993           -0.5575872             -15.1727 (HOMO)
        38        0.0017           -0.4386086             -11.9351 (LUMO)
        39        0.0000           -0.4060273             -11.0486
        40        0.0000           -0.3720811             -10.1248
        41                         -0.2883129              -7.8454
        42                         -0.2062650              -5.6128
        43                         -0.2022286              -5.5029
        44                         -0.1472020              -4.0056
        45                         -0.1322580              -3.5989
        46                         -0.0855357              -2.3275
        47                         -0.0509020              -1.3851
        48                         -0.0368764              -1.0035
       ...                                ...                  ...
        67                          0.5635746              15.3356
      -------------------------------------------------------------
                  HL-Gap            0.1189787 Eh            3.2376 eV

     #   Z          covCN         q      C6AA      α(0)
     1   6 C        3.692    -0.098    22.564     6.797
     2   7 N        2.838     0.095    19.592     6.574
     3   6 C        3.068     0.057    26.663     8.467
     4   7 N        2.802    -0.057    22.334     7.019
     5   6 C        3.046     0.117    25.376     8.262
     6   6 C        3.136    -0.027    28.435     8.728
     7   6 C        2.764     0.276    22.330     7.739
     8   8 O        0.858    -0.367    21.036     6.149
     9   7 N        2.746    -0.086    22.920     7.110
    10   6 C        3.711    -0.063    21.841     6.678
    11   6 C        2.729     0.319    21.585     7.606
    12   8 O        0.859    -0.356    20.812     6.116
    13   7 N        2.738    -0.060    22.411     7.031
    14   6 C        3.696    -0.072    22.065     6.719
    15   1 H        0.924     0.113     1.671     2.022
    16   1 H        0.925     0.108     1.710     2.045
    17   1 H        0.925     0.142     1.450     1.883
    18   1 H        0.926     0.130     1.538     1.939
    19   1 H        0.925     0.111     1.684     2.030
    20   1 H        0.925     0.096     1.818     2.109
    21   1 H        0.925     0.097     1.815     2.107
    22   1 H        0.925     0.081     1.968     2.194
    23   1 H        0.925     0.081     1.967     2.193
    24   1 H        0.925     0.129     1.543     1.942
    25   1 H        0.860     0.233     0.951     1.528

Wiberg/Mayer (AO) data.
largest (>0.10) Wiberg bond orders for each atom

     #   Z sym  total        # sym  WBO       # sym  WBO       # sym  WBO
 ---------------------------------------------------------------------------
     1   6 C    3.911 --     2 N    0.982    16 H    0.963    17 H    0.959
                            15 H    0.954
     2   7 N    3.735 --     3 C    1.430     6 C    1.173     1 C    0.982
     3   6 C    3.928 --     2 N    1.430     4 N    1.284    18 H    0.951
     4   7 N    3.610 --     3 C    1.284     5 C    1.187    25 H    0.917
     5   6 C    3.962 --     6 C    1.357    13 N    1.229     4 N    1.187
     6   6 C    3.934 --     5 C    1.357     2 N    1.173     7 C    1.050
     7   6 C    3.966 --     8 O    1.702     9 N    1.120     6 C    1.050
     8   8 O    2.073 --     7 C    1.702     9 N    0.160
     9   7 N    3.578 --    11 C    1.122     7 C    1.120    10 C    0.965
                             8 O    0.160    12 O    0.139
    10   6 C    3.920 --    19 H    0.970    21 H    0.968    20 H    0.968
                             9 N    0.965
    11   6 C    3.960 --    12 O    1.723     9 N    1.122    13 N    1.024
    12   8 O    2.084 --    11 C    1.723     9 N    0.139    13 N    0.124
    13   7 N    3.568 --     5 C    1.229    11 C    1.024    14 C    0.973
                            12 O    0.124
    14   6 C    3.925 --    13 N    0.973    22 H    0.972    23 H    0.972
                            24 H    0.963
    15   1 H    0.987 --     1 C    0.954
    16   1 H    0.988 --     1 C    0.963
    17   1 H    0.980 --     1 C    0.959
    18   1 H    0.982 --     3 C    0.951
    19   1 H    0.987 --    10 C    0.970
    20   1 H    0.990 --    10 C    0.968
    21   1 H    0.990 --    10 C    0.968
    22   1 H    0.992 --    14 C    0.972
    23   1 H    0.992 --    14 C    0.972
    24   1 H    0.983 --    14 C    0.963
    25   1 H    0.945 --     4 N    0.917
 ---------------------------------------------------------------------------

molecular dipole:
                 x           y           z       tot (Debye)
 q only:        2.746      -2.072       0.008
   full:        3.057      -2.613       0.013      10.222

           -------------------------------------------------
          | TOTAL ENERGY              -42.245256203412 Eh   |
          | GRADIENT NORM               0.002758978541 Eh/α |
          | HOMO-LUMO GAP               3.237574235641 eV   |
           -------------------------------------------------

 * finished run on 2024/06/05 at 19:58:00.945
