   * xtb version 6.6.1 (8d0f1dd) compiled by 'conda@1efc2f54142f' on 2023-08-01
          program call               : xtb xtbopt.xyz --opt crude --input .xc2 --gfn2

   ID    Z sym.   atoms
    1    6 C      1, 3, 5-7, 10, 11, 14
    2    7 N      2, 4, 9, 13
    3    8 O      8, 12
    4    1 H      15-25

          :  Hamiltonian                  GFN2-xTB          :
 * total energy  :   -42.0454875 Eh     change       -0.6394885E-13 Eh
   *** GEOMETRY OPTIMIZATION CONVERGED AFTER 1 ITERATIONS ***

 final structure:
================
25
 xtb: 6.6.1 (8d0f1dd)
C            3.29251953148528        1.18766239349130       -0.04716278365019
N            2.34471910202980        0.10407882840755       -0.00490575387982
C            2.66956810209235       -1.18346388928559       -0.01089750240192
N            1.56608069206364       -1.93476623182459        0.06425984496308
C            0.44197695251844       -1.09267966966027        0.11981371815784
C            0.98691421711246        0.22165512634563        0.07257783068679
C            0.22630653269296        1.48187173489398        0.07251736827583
O            0.77309630654682        2.58377412229213       -0.02464460344564
N           -1.07834535298387        1.28117177975790        0.17448523882222
C           -2.06095502436413        2.26587147992725        0.19534848448956
C           -3.80472243655689       -1.18728708257184       -1.20186283803871
O           -4.20893166336106       -0.14347846645969       -1.08472030569011
N           -0.79511424364383       -1.40970928903072        0.19022682539517
C           -1.35670780348019       -2.69806077274567        0.26275230797478
H            3.80507555990654        1.27537127583775        0.91206776073968
H            4.03049886278019        1.01034982606582       -0.82775676337337
H            2.75730201607996        2.11813116156963       -0.24200136088476
H            3.67307488642010       -1.56250290682061       -0.06774308673412
H           -1.64377356727822        3.28162686904196        0.21187276516792
H           -2.70236898992500        2.16014883979093       -0.68847021816646
H           -2.69760157598102        2.11868389148960        1.07502595290002
H           -0.83204240886372       -3.36048486016754        0.96055781173848
H           -1.37436051098951       -3.16685646496921       -0.72814605359631
H           -2.39374084151187       -2.58910620152007        0.58412158685268
H            1.54196317127488       -2.94376295228412        0.06385539162558

          :  Hamiltonian                  GFN2-xTB          :
         :: total energy             -42.045487487507 Eh    ::
         :: gradient norm              0.003146469553 Eh/a0 ::
         :: HOMO-LUMO gap              0.265745983413 eV    ::
         :: SCC energy               -42.583057034187 Eh    ::
         :: -> dispersion             -0.020245327978 Eh    ::
         :: repulsion energy           0.537432907367 Eh    ::

    * Orbital Energies and Occupations

         #    Occupation            Energy/Eh            Energy/eV
      -------------------------------------------------------------
         1        2.0000           -0.8964698             -24.3942
       ...           ...                  ...                  ...
        25        1.9999           -0.6564419             -17.8627
        26        1.9998           -0.6551767             -17.8283
        27        1.9994           -0.6335099             -17.2387
        28        1.9992           -0.6286346             -17.1060
        29        1.9989           -0.6230891             -16.9551
        30        1.9984           -0.6172976             -16.7975
        31        1.9972           -0.6091609             -16.5761
        32        1.9957           -0.6019213             -16.3791
        33        1.9711           -0.5717513             -15.5581
        34        1.9042           -0.5522016             -15.0262
        35        1.7906           -0.5388456             -14.6627
        36        1.6687           -0.5304681             -14.4348
        37        1.4697           -0.5210092             -14.1774 (HOMO)
        38        1.1986           -0.5112433             -13.9116 (LUMO)
        39        0.0072           -0.4157620             -11.3135
        40        0.0007           -0.3790256             -10.3138
        41        0.0007           -0.3788820             -10.3099
        42        0.0003           -0.3662790              -9.9670
        43        0.0000           -0.2871675              -7.8142
        44                         -0.1821677              -4.9570
        45                         -0.1484157              -4.0386
        46                         -0.0758521              -2.0640
        47                         -0.0705805              -1.9206
        48                         -0.0233081              -0.6342
       ...                                ...                  ...
        67                          0.7199485              19.5908
      -------------------------------------------------------------
                  HL-Gap            0.0097660 Eh            0.2657 eV

     #   Z          covCN         q      C6AA      α(0)
     1   6 C        3.693    -0.095    22.507     6.788
     2   7 N        2.824     0.087    19.725     6.596
     3   6 C        3.010     0.068    26.472     8.440
     4   7 N        2.786    -0.080    22.801     7.092
     5   6 C        2.964     0.141    24.928     8.190
     6   6 C        3.099     0.005    27.791     8.639
     7   6 C        2.758     0.283    22.200     7.716
     8   8 O        0.858    -0.380    21.280     6.185
     9   7 N        1.840    -0.162    25.302     7.454
    10   6 C        3.693    -0.034    21.371     6.615
    11   6 C        0.856     0.058    33.394     9.643
    12   8 O        0.856    -0.031    15.537     5.285
    13   7 N        1.825    -0.155    25.136     7.429
    14   6 C        3.694    -0.051    21.666     6.659
    15   1 H        0.924     0.108     1.717     2.049
    16   1 H        0.925     0.102     1.767     2.079
    17   1 H        0.924     0.146     1.422     1.865
    18   1 H        0.926     0.120     1.614     1.987
    19   1 H        0.923     0.118     1.633     1.998
    20   1 H        0.924     0.118     1.626     1.994
    21   1 H        0.924     0.118     1.634     1.999
    22   1 H        0.924     0.078     1.998     2.210
    23   1 H        0.924     0.106     1.734     2.059
    24   1 H        0.924     0.112     1.680     2.027
    25   1 H        0.860     0.222     1.002     1.568

Wiberg/Mayer (AO) data.
largest (>0.10) Wiberg bond orders for each atom

     #   Z sym  total        # sym  WBO       # sym  WBO       # sym  WBO
 ---------------------------------------------------------------------------
     1   6 C    3.899 --     2 N    0.983    16 H    0.964    15 H    0.954
                            17 H    0.945
     2   7 N    3.710 --     3 C    1.365     6 C    1.214     1 C    0.983
     3   6 C    3.818 --     2 N    1.365     4 N    1.329    18 H    0.951
     4   7 N    3.519 --     3 C    1.329     5 C    1.067    25 H    0.923
     5   6 C    3.945 --    13 N    1.532     6 C    1.207     4 N    1.067
     6   6 C    3.687 --     2 N    1.214     5 C    1.207     7 C    1.028
     7   6 C    3.926 --     8 O    1.521     9 N    1.305     6 C    1.028
     8   8 O    1.751 --     7 C    1.521     9 N    0.114
     9   7 N    2.592 --     7 C    1.305    10 C    1.114     8 O    0.114
    10   6 C    3.861 --     9 N    1.114    21 H    0.909    19 H    0.904
                            20 H    0.902
    11   6 C    2.622 --    12 O    2.614
    12   8 O    2.617 --    11 C    2.614
    13   7 N    2.739 --     5 C    1.532    14 C    1.069
    14   6 C    3.906 --    13 N    1.069    24 H    0.943    22 H    0.936
                            23 H    0.917
    15   1 H    0.985 --     1 C    0.954
    16   1 H    0.987 --     1 C    0.964
    17   1 H    0.976 --     1 C    0.945
    18   1 H    0.983 --     3 C    0.951
    19   1 H    0.907 --    10 C    0.904
    20   1 H    0.924 --    10 C    0.902
    21   1 H    0.928 --    10 C    0.909
    22   1 H    0.951 --    14 C    0.936
    23   1 H    0.940 --    14 C    0.917
    24   1 H    0.959 --    14 C    0.943
    25   1 H    0.950 --     4 N    0.923
 ---------------------------------------------------------------------------

molecular dipole:
                 x           y           z       tot (Debye)
 q only:        1.562      -1.937       0.093
   full:        1.754      -2.063       0.110       6.889

           -------------------------------------------------
          | TOTAL ENERGY              -42.045487487507 Eh   |
          | GRADIENT NORM               0.003146469553 Eh/α |
          | HOMO-LUMO GAP               0.265745983413 eV   |
           -------------------------------------------------

 * finished run on 2024/06/05 at 20:00:16.450
