   * xtb version 6.6.1 (8d0f1dd) compiled by 'conda@1efc2f54142f' on 2023-08-01
          program call               : xtb struc.xyz --opt loose --input .xc1 --gfn2

   ID    Z sym.   atoms
    1    7 N      1, 17
    2    6 C      2-6, 8, 9, 11-16, 18-23, 25, 26, 28-33
    3    8 O      7, 10, 24, 27
    4    1 H      34-72
constraining bond 22 29 to    6.0000000 Å, actual value:    2.7707958 Å

          :  Hamiltonian                  GFN2-xTB          :
 * total energy  :   -97.5422210 Eh     change       -0.4035485E-08 Eh
 * total energy  :   -97.9297191 Eh     change       -0.3874982E+00 Eh
 * total energy  :   -98.1871752 Eh     change       -0.2574561E+00 Eh
 * total energy  :   -98.3466544 Eh     change       -0.1594792E+00 Eh
 * total energy  :   -98.4281895 Eh     change       -0.8153505E-01 Eh
 * total energy  :   -98.4648220 Eh     change       -0.3663250E-01 Eh
 * total energy  :   -98.4827048 Eh     change       -0.1788283E-01 Eh
 * total energy  :   -98.5118811 Eh     change       -0.2917632E-01 Eh
 * total energy  :   -98.5475286 Eh     change       -0.3564744E-01 Eh
 * total energy  :   -98.6065991 Eh     change       -0.5907057E-01 Eh
 * total energy  :   -99.1706506 Eh     change       -0.2603322E-03 Eh
 * total energy  :   -99.1709451 Eh     change       -0.2944989E-03 Eh
 * total energy  :   -99.1712536 Eh     change       -0.3085636E-03 Eh
 * total energy  :   -99.1714895 Eh     change       -0.2359106E-03 Eh
 * total energy  :   -99.1716687 Eh     change       -0.1791731E-03 Eh
 * total energy  :   -99.1717775 Eh     change       -0.1087719E-03 Eh
 * total energy  :   -99.1718751 Eh     change       -0.9762748E-04 Eh
 * total energy  :   -99.1719429 Eh     change       -0.6774007E-04 Eh
 * total energy  :   -99.1719892 Eh     change       -0.4637286E-04 Eh
   *** GEOMETRY OPTIMIZATION CONVERGED AFTER 45 ITERATIONS ***

 final structure:
================
72
 xtb: 6.6.1 (8d0f1dd)
N           -1.83848947505755        2.81281497075826        2.30286616596737
C           -1.76790157730084        2.09131322574837        1.28727469182352
C           -2.88008751173847        1.89607399144555        0.29459539172990
C           -3.35832357747539        0.45301061539199        0.35040187342952
C           -4.25517082902887       -0.01840367376580       -0.61026048687236
C           -4.73385601473928       -1.31786490727980       -0.57816306132056
O           -5.60770042414195       -1.84831602839806       -1.45698259420814
C           -6.18632615267413       -1.02290971062185       -2.44049283739853
C           -4.29523123957267       -2.20070252374089        0.44659701758482
O           -4.80679080414595       -3.44559567793601        0.39806255281909
C           -4.48818044893282       -4.35895369965043        1.42236707471794
C           -3.40410062569574       -1.72609845787040        1.39600148175794
C           -2.94601677748338       -0.41570688297545        1.34918090106756
C           -2.26426648263739        2.19773126934697       -1.09692432043772
C           -1.32541291166010        1.10084187201253       -1.62690805536145
C           -0.02867427548553        1.03043775638647       -0.91764517607243
N            0.59492633808423       -0.08777644694950       -0.57031164449995
C            1.96740691216547       -0.03928714612515       -0.12399164382372
C            2.94629760458684       -0.19781041093808       -1.30365007695717
C            4.37177119331234       -0.18172830581762       -0.80204356463927
C            5.07915795186514        0.95775051463576       -0.99144647658124
C            6.83322907939125        2.65395748101556       -0.81141328631757
C            6.46683907826078        1.37090143608143       -0.72152601322528
O            7.32458499451990        0.37389346885851       -0.42436169386449
C            8.64490076128644        0.77444322167432       -0.14132678303584
C            4.75537943143383       -1.42911449168701       -0.07747528304321
O            5.70810973336349       -1.20238800172517        0.85726557705689
C            6.21223091023212       -2.34268908504087        1.51075599494877
C            4.16802728432354       -2.61407745551596       -0.23063644354850
C           -0.00842766240192       -1.38728317436530       -0.74433602338573
C           -4.10159365259548        2.82909221971468        0.54626010818150
C           -4.79109860783167        2.50062513597984        1.86817440692014
C           -3.74441950854957        4.31221300532220        0.50496566916828
H           -4.59616855464656        0.64640873070358       -1.38630515108312
H           -6.71966837062095       -0.17931476320314       -1.99232687159179
H           -6.89483117913904       -1.65546443678283       -2.97155188349644
H           -5.43682795093612       -0.65068815279931       -3.14644123099148
H           -4.79802296138201       -3.98503338505776        2.40255086509557
H           -5.04435593035473       -5.26466496594418        1.18918729947129
H           -3.41757466293735       -4.58605280083331        1.43922844711105
H           -3.06742962515075       -2.36688701484217        2.19457583100136
H           -2.27899974175800       -0.07556067601122        2.12583668405587
H           -3.07205529051596        2.32608745306715       -1.81635319384380
H           -1.71815233182875        3.14001960432729       -1.04304754791297
H           -1.84092846828718        0.14209696506155       -1.61676562394242
H           -1.10771617625978        1.35095541202237       -2.67390468820642
H           -0.85360401900554        1.54488756174460        0.97978974440208
H            0.53316473969075        1.94706845834653       -0.81130437167169
H            2.14176327206475       -0.83887516201493        0.59811826802920
H            2.15783975373377        0.91729452986457        0.36736203191149
H            2.77993614931021        0.61368781352807       -2.01297249033847
H            2.74672931771284       -1.14108620143028       -1.81220232066859
H            4.53350460756131        1.76142356645223       -1.47638852635159
H            6.35300077614744        3.57443235685038       -1.03749986955351
H            8.66783297234472        1.46559324743043        0.70594857138846
H            9.09405142680293        1.27017705613714       -1.00791670973079
H            9.19877828712758       -0.12970494826712        0.09859365779567
H            7.03000530562389       -2.00022709401595        2.14074852557605
H            5.43644616374252       -2.81136069150973        2.12576166430001
H            6.57561037511217       -3.07900734480445        0.78801615069570
H            3.48590068273466       -3.06139305181943       -0.91095596530074
H           -0.13791248589990       -1.62564155700822       -1.80229902280710
H           -0.98463964451424       -1.42164303593946       -0.25484532057693
H            0.63092220995841       -2.14231321202192       -0.29413273664110
H           -4.81408689642718        2.63110708340881       -0.26271434829297
H           -4.11950598204910        2.69746882028461        2.69765833547291
H           -5.09972131180082        1.45857019935470        1.90270897197536
H           -5.67435211003122        3.12334300100044        1.98267931002630
H           -3.02167466279070        4.54806993791503        1.27994588810251
H           -3.34470707620169        4.60790157441612       -0.46138736649362
H           -4.64082078607127        4.89906938014662        0.68728380814111
H           -1.01600693773319        2.89500116078044        2.89171258494689

          :  Hamiltonian                  GFN2-xTB          :
         :: total energy             -99.171989240555 Eh    ::
         :: gradient norm              0.001927452008 Eh/a0 ::
         :: HOMO-LUMO gap              0.079199433264 eV    ::
         :: SCC energy              -100.532768876794 Eh    ::
         :: -> dispersion             -0.075236314811 Eh    ::
         :: repulsion energy           1.358482069645 Eh    ::

    * Orbital Energies and Occupations

         #    Occupation            Energy/Eh            Energy/eV
      -------------------------------------------------------------
         1        2.0000           -0.8129566             -22.1217
       ...           ...                  ...                  ...
        78        1.9980           -0.5322461             -14.4832
        79        1.9979           -0.5311890             -14.4544
        80        1.9971           -0.5261716             -14.3179
        81        1.9953           -0.5184367             -14.1074
        82        1.9945           -0.5158571             -14.0372
        83        1.9935           -0.5132041             -13.9650
        84        1.9897           -0.5059518             -13.7676
        85        1.9788           -0.4944473             -13.4546
        86        1.9313           -0.4754107             -12.9366
        87        1.9241           -0.4737879             -12.8924
        88        1.8569           -0.4631831             -12.6039
        89        1.7807           -0.4557545             -12.4017
        90        1.1195           -0.4263981             -11.6029 (HOMO)
        91        1.0282           -0.4234875             -11.5237 (LUMO)
        92        0.3792           -0.3995929             -10.8735
        93        0.0277           -0.3550702              -9.6620
        94        0.0131           -0.3430549              -9.3350
        95        0.0032           -0.3205024              -8.7213
        96        0.0026           -0.3174731              -8.6389
        97        0.0001           -0.2673608              -7.2753
        98        0.0000           -0.2256141              -6.1393
        99        0.0000           -0.1948658              -5.3026
       100                         -0.1411978              -3.8422
       101                         -0.0720020              -1.9593
       ...                                ...                  ...
       171                          0.5921516              16.1133
      -------------------------------------------------------------
                  HL-Gap            0.0029105 Eh            0.0792 eV

     #   Z          covCN         q      C6AA      α(0)
     1   7 N        1.774    -0.264    27.682     7.791
     2   6 C        2.827     0.102    25.743     8.314
     3   6 C        3.908     0.006    20.412     6.422
     4   6 C        2.974     0.003    27.964     8.674
     5   6 C        2.920    -0.080    29.997     8.982
     6   6 C        2.862     0.130    25.152     8.221
     7   8 O        1.706    -0.228    17.779     5.693
     8   6 C        3.644     0.027    20.460     6.502
     9   6 C        2.864     0.129    25.166     8.223
    10   8 O        1.706    -0.226    17.749     5.688
    11   6 C        3.645     0.026    20.472     6.503
    12   6 C        2.913    -0.074    29.851     8.959
    13   6 C        2.921    -0.053    29.307     8.878
    14   6 C        3.813    -0.065    21.739     6.636
    15   6 C        3.802    -0.070    21.833     6.652
    16   6 C        2.845     0.008    27.824     8.645
    17   7 N        2.729     0.014    21.008     6.807
    18   6 C        3.756    -0.019    20.967     6.529
    19   6 C        3.813    -0.074    21.900     6.661
    20   6 C        2.943     0.008    27.852     8.656
    21   6 C        2.903    -0.039    28.979     8.827
    22   6 C        1.918    -0.132    34.822     9.530
    23   6 C        2.852     0.163    24.479     8.109
    24   8 O        1.706    -0.223    17.708     5.682
    25   6 C        3.662     0.027    20.384     6.477
    26   6 C        2.851     0.150    24.735     8.151
    27   8 O        1.706    -0.231    17.836     5.702
    28   6 C        3.658     0.029    20.367     6.477
    29   6 C        1.913    -0.154    35.492     9.621
    30   6 C        3.699    -0.072    22.044     6.715
    31   6 C        3.853    -0.007    20.674     6.467
    32   6 C        3.756    -0.119    22.828     6.812
    33   6 C        3.755    -0.119    22.841     6.815
    34   1 H        0.926     0.053     2.286     2.364
    35   1 H        0.924     0.055     2.260     2.351
    36   1 H        0.925     0.082     1.954     2.186
    37   1 H        0.924     0.048     2.343     2.394
    38   1 H        0.924     0.056     2.241     2.341
    39   1 H        0.925     0.083     1.953     2.185
    40   1 H        0.924     0.050     2.324     2.384
    41   1 H        0.926     0.054     2.272     2.357
    42   1 H        0.926     0.040     2.449     2.447
    43   1 H        0.925     0.061     2.182     2.310
    44   1 H        0.924     0.054     2.265     2.354
    45   1 H        0.925     0.068     2.111     2.272
    46   1 H        0.923     0.082     1.963     2.191
    47   1 H        0.922     0.008     2.917     2.671
    48   1 H        0.926     0.071     2.072     2.251
    49   1 H        0.924     0.076     2.024     2.225
    50   1 H        0.924     0.068     2.102     2.268
    51   1 H        0.924     0.054     2.269     2.356
    52   1 H        0.925     0.065     2.143     2.289
    53   1 H        0.925     0.054     2.269     2.356
    54   1 H        0.927     0.072     2.062     2.245
    55   1 H        0.924     0.057     2.229     2.335
    56   1 H        0.924     0.058     2.220     2.330
    57   1 H        0.925     0.073     2.052     2.240
    58   1 H        0.925     0.073     2.057     2.243
    59   1 H        0.924     0.052     2.297     2.370
    60   1 H        0.924     0.057     2.237     2.339
    61   1 H        0.927     0.054     2.276     2.359
    62   1 H        0.924     0.077     2.006     2.215
    63   1 H        0.924     0.081     1.973     2.197
    64   1 H        0.925     0.084     1.939     2.178
    65   1 H        0.924     0.038     2.473     2.459
    66   1 H        0.925     0.069     2.098     2.265
    67   1 H        0.925     0.036     2.505     2.475
    68   1 H        0.925     0.052     2.289     2.366
    69   1 H        0.925     0.062     2.174     2.306
    70   1 H        0.925     0.035     2.513     2.479
    71   1 H        0.925     0.056     2.252     2.347
    72   1 H        0.860     0.159     1.339     1.812

Wiberg/Mayer (AO) data.
largest (>0.10) Wiberg bond orders for each atom

     #   Z sym  total        # sym  WBO       # sym  WBO       # sym  WBO
 ---------------------------------------------------------------------------
     1   7 N    3.044 --     2 C    1.959    72 H    0.940
     2   6 C    3.929 --     1 N    1.959     3 C    0.994    47 H    0.896
     3   6 C    3.975 --     2 C    0.994     4 C    0.970    14 C    0.956
                            31 C    0.942
     4   6 C    3.946 --    13 C    1.412     5 C    1.369     3 C    0.970
     5   6 C    3.961 --     6 C    1.400     4 C    1.369    34 H    0.958
     6   6 C    3.902 --     5 C    1.400     9 C    1.219     7 O    1.102
     7   8 O    2.254 --     6 C    1.102     8 C    0.977
     8   6 C    3.931 --     7 O    0.977    36 H    0.976    35 H    0.973
                            37 H    0.973
     9   6 C    3.899 --    12 C    1.390     6 C    1.219    10 O    1.105
    10   8 O    2.253 --     9 C    1.105    11 C    0.977
    11   6 C    3.929 --    39 H    0.977    10 O    0.977    40 H    0.973
                            38 H    0.973
    12   6 C    3.960 --    13 C    1.405     9 C    1.390    41 H    0.963
    13   6 C    3.951 --     4 C    1.412    12 C    1.405    42 H    0.962
    14   6 C    3.974 --    15 C    0.983    44 H    0.972    43 H    0.968
                             3 C    0.956
    15   6 C    3.986 --    16 C    1.060    14 C    0.983    45 H    0.960
                            46 H    0.925
    16   6 C    3.607 --    17 N    1.408    15 C    1.060    48 H    0.957
    17   7 N    3.488 --    16 C    1.408    30 C    0.998    18 C    0.988
    18   6 C    3.951 --    17 N    0.988    50 H    0.967    19 C    0.966
                            49 H    0.962
    19   6 C    3.967 --    20 C    1.001    51 H    0.972    18 C    0.966
                            52 H    0.961
    20   6 C    3.856 --    21 C    1.707    26 C    1.005    19 C    1.001
    21   6 C    3.870 --    20 C    1.707    23 C    1.047    53 H    0.954
    22   6 C    2.861 --    23 C    1.686    54 H    0.958
    23   6 C    3.879 --    22 C    1.686    24 O    1.092    21 C    1.047
    24   8 O    2.229 --    23 C    1.092    25 C    0.977
    25   6 C    3.923 --    57 H    0.979    24 O    0.977    55 H    0.971
                            56 H    0.969
    26   6 C    3.883 --    29 C    1.731    27 O    1.079    20 C    1.005
    27   8 O    2.221 --    26 C    1.079    28 C    0.979    29 C    0.103
    28   6 C    3.926 --    27 O    0.979    58 H    0.978    60 H    0.972
                            59 H    0.969
    29   6 C    2.900 --    26 C    1.731    61 H    0.959    27 O    0.103
    30   6 C    3.956 --    17 N    0.998    64 H    0.977    62 H    0.966
                            63 H    0.962
    31   6 C    3.971 --    33 C    1.009    32 C    1.008    65 H    0.959
                             3 C    0.942
    32   6 C    3.977 --    31 C    1.008    67 H    0.982    68 H    0.981
                            66 H    0.974
    33   6 C    3.981 --    31 C    1.009    70 H    0.983    71 H    0.980
                            69 H    0.976
    34   1 H    0.996 --     5 C    0.958
    35   1 H    0.993 --     8 C    0.973
    36   1 H    0.992 --     8 C    0.976
    37   1 H    0.993 --     8 C    0.973
    38   1 H    0.992 --    11 C    0.973
    39   1 H    0.992 --    11 C    0.977
    40   1 H    0.993 --    11 C    0.973
    41   1 H    0.995 --    12 C    0.963
    42   1 H    0.998 --    13 C    0.962
    43   1 H    0.995 --    14 C    0.968
    44   1 H    0.996 --    14 C    0.972
    45   1 H    0.994 --    15 C    0.960
    46   1 H    0.970 --    15 C    0.925
    47   1 H    0.985 --     2 C    0.896
    48   1 H    0.994 --    16 C    0.957
    49   1 H    0.991 --    18 C    0.962
    50   1 H    0.993 --    18 C    0.967
    51   1 H    0.996 --    19 C    0.972
    52   1 H    0.992 --    19 C    0.961
    53   1 H    0.988 --    21 C    0.954
    54   1 H    0.977 --    22 C    0.958
    55   1 H    0.990 --    25 C    0.971
    56   1 H    0.989 --    25 C    0.969
    57   1 H    0.994 --    25 C    0.979
    58   1 H    0.993 --    28 C    0.978
    59   1 H    0.990 --    28 C    0.969
    60   1 H    0.992 --    28 C    0.972
    61   1 H    0.981 --    29 C    0.959
    62   1 H    0.985 --    30 C    0.966
    63   1 H    0.987 --    30 C    0.962
    64   1 H    0.993 --    30 C    0.977
    65   1 H    0.992 --    31 C    0.959
    66   1 H    0.990 --    32 C    0.974
    67   1 H    0.996 --    32 C    0.982
    68   1 H    0.994 --    32 C    0.981
    69   1 H    0.992 --    33 C    0.976
    70   1 H    0.997 --    33 C    0.983
    71   1 H    0.993 --    33 C    0.980
    72   1 H    0.969 --     1 N    0.940
 ---------------------------------------------------------------------------

molecular dipole:
                 x           y           z       tot (Debye)
 q only:        0.291      -0.013      -0.637
   full:        0.571      -0.032      -0.877       2.661

           -------------------------------------------------
          | TOTAL ENERGY              -99.171989240555 Eh   |
          | GRADIENT NORM               0.001927452008 Eh/α |
          | HOMO-LUMO GAP               0.079199433264 eV   |
           -------------------------------------------------

 * finished run on 2024/04/06 at 11:14:16.884
