   * xtb version 6.6.1 (8d0f1dd) compiled by 'conda@1efc2f54142f' on 2023-08-01
          program call               : xtb xtbopt.xyz --opt crude --input .xc2 --gfn2

   ID    Z sym.   atoms
    1    7 N      1, 17
    2    6 C      2-6, 8, 9, 11-16, 18-23, 25, 26, 28-33
    3    8 O      7, 10, 24, 27
    4    1 H      34-72
########################################################################
[WARNING] Please study the warnings concerning your input carefully
-1- readin_getIntValue: could not parse ''
########################################################################

          :  Hamiltonian                  GFN2-xTB          :
 * total energy  :   -99.1728063 Eh     change       -0.1772946E-09 Eh
 * total energy  :   -99.1742087 Eh     change       -0.1402390E-02 Eh
 * total energy  :   -99.1749714 Eh     change       -0.7627125E-03 Eh
 * total energy  :   -99.1754288 Eh     change       -0.4573131E-03 Eh
   *** GEOMETRY OPTIMIZATION CONVERGED AFTER 4 ITERATIONS ***

 final structure:
================
72
 xtb: 6.6.1 (8d0f1dd)
N           -1.84042711276486        2.81347183823350        2.30390536164126
C           -1.77090960019528        2.09175713887760        1.28827991846854
C           -2.88445535834747        1.89664468813639        0.29688413291403
C           -3.36137493274750        0.45315922205974        0.35220891291699
C           -4.25625675615430       -0.01888157782905       -0.61017934879477
C           -4.73395147479718       -1.31862086749477       -0.57907821802195
O           -5.60653263900849       -1.84940241170478       -1.45923280576977
C           -6.18293608383807       -1.02404345693394       -2.44413488687230
C           -4.29597339689564       -2.20131797378164        0.44598932964707
O           -4.80559781772196       -3.44716740901941        0.39524546042033
C           -4.48909727906979       -4.36026440263005        1.42046965853362
C           -3.40716228828222       -1.72609046050472        1.39735637348444
C           -2.95014620237589       -0.41521436185267        1.35179655266275
C           -2.27183879964369        2.20053822587123       -1.09568124384279
C           -1.33623106499774        1.10292144552821       -1.62945772853173
C           -0.03950318851216        1.03328754091405       -0.92114505957544
N            0.58266670898237       -0.08477419714759       -0.56958292836978
C            1.95422897405080       -0.03355292110408       -0.12309033908578
C            2.92942424835517       -0.19779802701689       -1.30343461043575
C            4.35177007492735       -0.15580041264441       -0.80604808635451
C            5.07014889284482        0.96057714130861       -1.02189118498833
C            6.81528510938209        2.56512607020737       -0.75724600809087
C            6.46344811717831        1.28710257744565       -0.72610103865114
O            7.32001182456669        0.28376022530706       -0.45564092674607
C            8.63214097095232        0.70316451276095       -0.15451600993552
C            4.79847708699072       -1.35385904278985       -0.06224404111226
O            5.71460754645209       -1.11610183197305        0.90631123202385
C            6.22538314497335       -2.27048169662550        1.53231013067947
C            4.29457576486433       -2.55557269772820       -0.29032442509453
C           -0.01764451955455       -1.38558898456222       -0.74371371946676
C           -4.10617500504488        2.82834876056124        0.55089875562284
C           -4.79219300934457        2.50010022085458        1.87456415060008
C           -3.75005085714166        4.31163266816745        0.50749102736351
H           -4.59620281080766        0.64585026964750       -1.38689320176803
H           -6.71683627033169       -0.18004677520045       -1.99730748369438
H           -6.89069563307428       -1.65639919145053       -2.97642696384901
H           -5.43184907225943       -0.65229198589150       -3.14875304383709
H           -4.80009870462402       -3.98586277443797        2.40015265360922
H           -5.04554623145251       -5.26570351039683        1.18681564119518
H           -3.41855112564298       -4.58810304405957        1.43891645122171
H           -3.07146941577062       -2.36682627852519        2.19646077151373
H           -2.28479699232733       -0.07444668889732        2.12977129719181
H           -3.08104364004968        2.33256412308768       -1.81303227349377
H           -1.72342947134010        3.14167083285151       -1.04075297434596
H           -1.85187390725452        0.14425210966633       -1.61676181684507
H           -1.12136139556723        1.35222653214044       -2.67714363062983
H           -0.85710167845892        1.54496668994870        0.98050817867000
H            0.52275549936701        1.94984687674507       -0.81652367654349
H            2.13004961045053       -0.82902236620267        0.60437111724423
H            2.14487261437599        0.92654328464295        0.36217714182675
H            2.75947546777158        0.60639627320846       -2.02054010999870
H            2.73631306428475       -1.14676941400675       -1.80337169928410
H            4.55815909968266        1.77950638544556       -1.51429955599201
H            6.34021840896346        3.49244455435946       -0.97152130408751
H            8.63547895779040        1.37831463692525        0.70787695727564
H            9.07344310550939        1.22880601828935       -1.00824342611405
H            9.20405155942928       -0.19427917576399        0.06948856505033
H            7.01978283525975       -1.93972418737111        2.19742514114375
H            5.44026437895266       -2.77754031943409        2.10604398648528
H            6.62165592020833       -2.97264377782435        0.79131767674811
H            3.62973336419205       -3.01581969635233       -0.98068056990962
H           -0.14814869378409       -1.62363711783926       -1.80167035902674
H           -0.99286474193453       -1.42304127535807       -0.25273219675035
H            0.62475432140907       -2.13901666953643       -0.29519632442953
H           -4.82022401841781        2.62883340071397       -0.25630688104967
H           -4.11972384859823        2.70080009982942        2.70237459412231
H           -5.09704366013075        1.45703018638210        1.91145421381999
H           -5.67741023543379        3.11989774190947        1.98939568147586
H           -3.02386004899521        4.54811853301505        1.27898816486177
H           -3.35492746394132        4.60721021337389       -0.46080066038706
H           -4.64587430125265        4.89810202066934        0.69363197888294
H           -1.01727032727732        2.89487344531223        2.89208439504172

          :  Hamiltonian                  GFN2-xTB          :
         :: total energy             -99.175428761497 Eh    ::
         :: gradient norm              0.005393151302 Eh/a0 ::
         :: HOMO-LUMO gap              0.071491288904 eV    ::
         :: SCC energy              -100.546905965627 Eh    ::
         :: -> dispersion             -0.075504805166 Eh    ::
         :: repulsion energy           1.369988304578 Eh    ::

    * Orbital Energies and Occupations

         #    Occupation            Energy/Eh            Energy/eV
      -------------------------------------------------------------
         1        2.0000           -0.8123367             -22.1048
       ...           ...                  ...                  ...
        78        1.9981           -0.5316792             -14.4677
        79        1.9980           -0.5307005             -14.4411
        80        1.9972           -0.5256216             -14.3029
        81        1.9954           -0.5178770             -14.0922
        82        1.9946           -0.5153183             -14.0225
        83        1.9936           -0.5126652             -13.9503
        84        1.9908           -0.5068524             -13.7922
        85        1.9792           -0.4938473             -13.4383
        86        1.9392           -0.4765276             -12.9670
        87        1.9324           -0.4747825             -12.9195
        88        1.8596           -0.4626161             -12.5884
        89        1.8031           -0.4567706             -12.4294
        90        1.0913           -0.4245998             -11.5539 (HOMO)
        91        1.0086           -0.4219726             -11.4825 (LUMO)
        92        0.3844           -0.3989686             -10.8565
        93        0.0256           -0.3529105              -9.6032
        94        0.0133           -0.3424412              -9.3183
        95        0.0032           -0.3199310              -8.7058
        96        0.0027           -0.3168718              -8.6225
        97        0.0001           -0.2654604              -7.2235
        98        0.0000           -0.2244246              -6.1069
        99        0.0000           -0.1942892              -5.2869
       100                         -0.1400952              -3.8122
       101                         -0.0714536              -1.9444
       ...                                ...                  ...
       171                          0.6240984              16.9826
      -------------------------------------------------------------
                  HL-Gap            0.0026273 Eh            0.0715 eV

     #   Z          covCN         q      C6AA      α(0)
     1   7 N        1.774    -0.265    27.695     7.793
     2   6 C        2.827     0.101    25.745     8.314
     3   6 C        3.908     0.006    20.412     6.422
     4   6 C        2.974     0.002    27.967     8.675
     5   6 C        2.920    -0.080    29.999     8.982
     6   6 C        2.862     0.130    25.155     8.221
     7   8 O        1.706    -0.228    17.785     5.694
     8   6 C        3.644     0.027    20.458     6.501
     9   6 C        2.864     0.129    25.171     8.224
    10   8 O        1.706    -0.227    17.757     5.689
    11   6 C        3.645     0.026    20.470     6.502
    12   6 C        2.913    -0.074    29.854     8.960
    13   6 C        2.921    -0.053    29.309     8.878
    14   6 C        3.813    -0.065    21.737     6.636
    15   6 C        3.802    -0.070    21.832     6.652
    16   6 C        2.845     0.008    27.839     8.647
    17   7 N        2.729     0.013    21.028     6.811
    18   6 C        3.757    -0.018    20.952     6.526
    19   6 C        3.812    -0.073    21.890     6.660
    20   6 C        2.949     0.006    27.878     8.660
    21   6 C        2.916    -0.041    29.020     8.834
    22   6 C        1.929    -0.133    34.822     9.530
    23   6 C        2.860     0.167    24.408     8.098
    24   8 O        1.705    -0.225    17.727     5.685
    25   6 C        3.668     0.028    20.360     6.470
    26   6 C        2.858     0.153    24.682     8.143
    27   8 O        1.706    -0.233    17.861     5.706
    28   6 C        3.663     0.029    20.343     6.470
    29   6 C        1.917    -0.152    35.430     9.613
    30   6 C        3.699    -0.072    22.041     6.714
    31   6 C        3.853    -0.007    20.673     6.467
    32   6 C        3.756    -0.119    22.827     6.812
    33   6 C        3.755    -0.119    22.841     6.814
    34   1 H        0.926     0.053     2.288     2.365
    35   1 H        0.924     0.055     2.262     2.352
    36   1 H        0.925     0.082     1.956     2.187
    37   1 H        0.924     0.048     2.345     2.395
    38   1 H        0.924     0.056     2.244     2.342
    39   1 H        0.925     0.082     1.955     2.187
    40   1 H        0.924     0.049     2.328     2.386
    41   1 H        0.926     0.054     2.276     2.359
    42   1 H        0.926     0.040     2.452     2.448
    43   1 H        0.925     0.061     2.184     2.311
    44   1 H        0.924     0.054     2.267     2.355
    45   1 H        0.925     0.068     2.112     2.273
    46   1 H        0.923     0.081     1.968     2.194
    47   1 H        0.922     0.008     2.922     2.673
    48   1 H        0.926     0.071     2.077     2.254
    49   1 H        0.924     0.075     2.032     2.229
    50   1 H        0.924     0.069     2.101     2.267
    51   1 H        0.924     0.055     2.254     2.348
    52   1 H        0.925     0.065     2.138     2.287
    53   1 H        0.925     0.056     2.252     2.347
    54   1 H        0.927     0.073     2.055     2.242
    55   1 H        0.924     0.058     2.225     2.333
    56   1 H        0.924     0.058     2.225     2.333
    57   1 H        0.925     0.073     2.048     2.238
    58   1 H        0.925     0.073     2.058     2.243
    59   1 H        0.924     0.051     2.309     2.376
    60   1 H        0.924     0.058     2.226     2.333
    61   1 H        0.927     0.055     2.253     2.347
    62   1 H        0.924     0.077     2.009     2.216
    63   1 H        0.924     0.081     1.973     2.197
    64   1 H        0.925     0.083     1.945     2.181
    65   1 H        0.924     0.038     2.476     2.461
    66   1 H        0.925     0.069     2.098     2.265
    67   1 H        0.925     0.036     2.506     2.475
    68   1 H        0.925     0.052     2.292     2.367
    69   1 H        0.925     0.062     2.176     2.307
    70   1 H        0.925     0.035     2.515     2.480
    71   1 H        0.925     0.055     2.254     2.348
    72   1 H        0.860     0.159     1.341     1.814

Wiberg/Mayer (AO) data.
largest (>0.10) Wiberg bond orders for each atom

     #   Z sym  total        # sym  WBO       # sym  WBO       # sym  WBO
 ---------------------------------------------------------------------------
     1   7 N    3.044 --     2 C    1.959    72 H    0.941
     2   6 C    3.929 --     1 N    1.959     3 C    0.994    47 H    0.896
     3   6 C    3.975 --     2 C    0.994     4 C    0.970    14 C    0.956
                            31 C    0.942
     4   6 C    3.947 --    13 C    1.413     5 C    1.369     3 C    0.970
     5   6 C    3.961 --     6 C    1.400     4 C    1.369    34 H    0.958
     6   6 C    3.903 --     5 C    1.400     9 C    1.220     7 O    1.101
     7   8 O    2.254 --     6 C    1.101     8 C    0.977
     8   6 C    3.931 --     7 O    0.977    36 H    0.976    35 H    0.973
                            37 H    0.973
     9   6 C    3.899 --    12 C    1.390     6 C    1.220    10 O    1.105
    10   8 O    2.253 --     9 C    1.105    11 C    0.977
    11   6 C    3.930 --    39 H    0.977    10 O    0.977    40 H    0.973
                            38 H    0.973
    12   6 C    3.961 --    13 C    1.405     9 C    1.390    41 H    0.963
    13   6 C    3.952 --     4 C    1.413    12 C    1.405    42 H    0.962
    14   6 C    3.974 --    15 C    0.983    44 H    0.972    43 H    0.968
                             3 C    0.956
    15   6 C    3.986 --    16 C    1.060    14 C    0.983    45 H    0.960
                            46 H    0.925
    16   6 C    3.601 --    17 N    1.404    15 C    1.060    48 H    0.957
    17   7 N    3.484 --    16 C    1.404    30 C    0.998    18 C    0.989
    18   6 C    3.952 --    17 N    0.989    50 H    0.967    19 C    0.967
                            49 H    0.963
    19   6 C    3.967 --    20 C    1.001    51 H    0.972    18 C    0.967
                            52 H    0.961
    20   6 C    3.861 --    21 C    1.705    26 C    1.007    19 C    1.001
    21   6 C    3.874 --    20 C    1.705    23 C    1.046    53 H    0.953
    22   6 C    2.884 --    23 C    1.696    54 H    0.959    24 O    0.101
    23   6 C    3.887 --    22 C    1.696    24 O    1.092    21 C    1.046
    24   8 O    2.231 --    23 C    1.092    25 C    0.976    22 C    0.101
    25   6 C    3.923 --    57 H    0.979    24 O    0.976    55 H    0.971
                            56 H    0.969
    26   6 C    3.890 --    29 C    1.739    27 O    1.077    20 C    1.007
    27   8 O    2.221 --    26 C    1.077    28 C    0.978    29 C    0.104
    28   6 C    3.926 --    27 O    0.978    58 H    0.978    60 H    0.972
                            59 H    0.970
    29   6 C    2.916 --    26 C    1.739    61 H    0.959    27 O    0.104
    30   6 C    3.956 --    17 N    0.998    64 H    0.977    62 H    0.966
                            63 H    0.962
    31   6 C    3.971 --    33 C    1.009    32 C    1.008    65 H    0.959
                             3 C    0.942
    32   6 C    3.978 --    31 C    1.008    67 H    0.982    68 H    0.981
                            66 H    0.974
    33   6 C    3.981 --    31 C    1.009    70 H    0.983    71 H    0.980
                            69 H    0.976
    34   1 H    0.996 --     5 C    0.958
    35   1 H    0.993 --     8 C    0.973
    36   1 H    0.992 --     8 C    0.976
    37   1 H    0.993 --     8 C    0.973
    38   1 H    0.992 --    11 C    0.973
    39   1 H    0.992 --    11 C    0.977
    40   1 H    0.993 --    11 C    0.973
    41   1 H    0.995 --    12 C    0.963
    42   1 H    0.998 --    13 C    0.962
    43   1 H    0.995 --    14 C    0.968
    44   1 H    0.996 --    14 C    0.972
    45   1 H    0.994 --    15 C    0.960
    46   1 H    0.970 --    15 C    0.925
    47   1 H    0.986 --     2 C    0.896
    48   1 H    0.995 --    16 C    0.957
    49   1 H    0.991 --    18 C    0.963
    50   1 H    0.993 --    18 C    0.967
    51   1 H    0.996 --    19 C    0.972
    52   1 H    0.992 --    19 C    0.961
    53   1 H    0.988 --    21 C    0.953
    54   1 H    0.978 --    22 C    0.959
    55   1 H    0.991 --    25 C    0.971
    56   1 H    0.990 --    25 C    0.969
    57   1 H    0.993 --    25 C    0.979
    58   1 H    0.993 --    28 C    0.978
    59   1 H    0.991 --    28 C    0.970
    60   1 H    0.992 --    28 C    0.972
    61   1 H    0.981 --    29 C    0.959
    62   1 H    0.985 --    30 C    0.966
    63   1 H    0.987 --    30 C    0.962
    64   1 H    0.993 --    30 C    0.977
    65   1 H    0.992 --    31 C    0.959
    66   1 H    0.990 --    32 C    0.974
    67   1 H    0.996 --    32 C    0.982
    68   1 H    0.994 --    32 C    0.981
    69   1 H    0.993 --    33 C    0.976
    70   1 H    0.997 --    33 C    0.983
    71   1 H    0.993 --    33 C    0.980
    72   1 H    0.969 --     1 N    0.941
 ---------------------------------------------------------------------------

molecular dipole:
                 x           y           z       tot (Debye)
 q only:        0.388      -0.027      -0.655
   full:        0.662      -0.043      -0.894       2.831

           -------------------------------------------------
          | TOTAL ENERGY              -99.175428761497 Eh   |
          | GRADIENT NORM               0.005393151302 Eh/α |
          | HOMO-LUMO GAP               0.071491288904 eV   |
           -------------------------------------------------

 * finished run on 2024/04/06 at 11:14:17.875
