   * xtb version 6.6.1 (8d0f1dd) compiled by 'conda@1efc2f54142f' on 2023-08-01
          program call               : xtb xtbopt.xyz --opt crude --input .xc2 --gfn2

   ID    Z sym.   atoms
    1    6 C      1, 3, 5-7, 10, 11, 14
    2    7 N      2, 4, 9, 13
    3    8 O      8, 12
    4    1 H      15-25
########################################################################
[WARNING] Please study the warnings concerning your input carefully
-1- readin_getIntValue: could not parse ''
########################################################################

          :  Hamiltonian                  GFN2-xTB          :
 * total energy  :   -42.1268564 Eh     change       -0.1278977E-12 Eh
 * total energy  :   -42.1276189 Eh     change       -0.7625073E-03 Eh
 * total energy  :   -42.1280586 Eh     change       -0.4396909E-03 Eh
   *** GEOMETRY OPTIMIZATION CONVERGED AFTER 3 ITERATIONS ***

 final structure:
================
25
 xtb: 6.6.1 (8d0f1dd)
C            3.06556118970635        1.02674607136295        0.19509468419757
N            2.29023230397480        1.93426371916714       -0.62568339486953
C            2.39632867621109       -0.30585055871582        0.17418153341406
N            0.75404655074014       -2.79741307925489       -0.28832155029288
C            0.28205963907558       -1.63497154794866       -0.10114498723173
C            1.05029512133185       -0.37550991336412       -0.03147933728476
C            0.30968946468735        0.84690147584871       -0.11016121294577
O            0.92620951994453        2.01431076405828       -0.22756480857130
N           -1.01283067485306        0.85341733322494        0.01283188020947
C           -1.78655377870871        2.08086053862043        0.02233347172717
C           -1.77750012621214       -0.34534086643512        0.14272208139174
O           -2.96164741928296       -0.26776048501104        0.30433412796266
N           -1.08334945792101       -1.51972831901413        0.04228319876496
C           -1.84501381701627       -2.75730317728963        0.03773172443012
H            3.19218716606943        1.36776186245709        1.23938571322923
H            4.05849045449315        0.96752882230791       -0.25735058171767
H            2.62788231079477        2.89420331293962       -0.64271801668269
H            2.98435951746436       -1.18507761214173        0.37676561567131
H           -1.12319137378979        2.93597980974934       -0.05547321307328
H           -2.48972963174734        2.07039507522279       -0.81115060559507
H           -2.36632503929334        2.13205188225853        0.94460834584454
H           -1.54696790221317       -3.37403350901011        0.88480774956602
H           -1.62747177830261       -3.30741102047507       -0.87749322067624
H           -2.90394569637920       -2.51964733158320        0.09903009617814
H            1.74761629532717       -2.91613470537575       -0.41639767574753

          :  Hamiltonian                  GFN2-xTB          :
         :: total energy             -42.128058576326 Eh    ::
         :: gradient norm              0.006056821754 Eh/a0 ::
         :: HOMO-LUMO gap              1.758252741809 eV    ::
         :: SCC energy               -42.634025115041 Eh    ::
         :: -> dispersion             -0.022477552348 Eh    ::
         :: repulsion energy           0.505827206723 Eh    ::

    * Orbital Energies and Occupations

         #    Occupation            Energy/Eh            Energy/eV
      -------------------------------------------------------------
         1        2.0000           -0.9423545             -25.6428
       ...           ...                  ...                  ...
        25        1.9999           -0.6703193             -18.2403
        26        1.9999           -0.6640747             -18.0704
        27        1.9997           -0.6491388             -17.6640
        28        1.9994           -0.6383189             -17.3695
        29        1.9992           -0.6332672             -17.2321
        30        1.9991           -0.6309759             -17.1697
        31        1.9975           -0.6158777             -16.7589
        32        1.9961           -0.6083893             -16.5551
        33        1.9878           -0.5903962             -16.0655
        34        1.9868           -0.5891879             -16.0326
        35        1.9301           -0.5623181             -15.3015
        36        1.9075           -0.5576958             -15.1757
        37        1.8495           -0.5495021             -14.9527 (HOMO)
        38        0.3438           -0.4848875             -13.1945 (LUMO)
        39        0.0035           -0.4093720             -11.1396
        40        0.0005           -0.3792224             -10.3192
        41        0.0000           -0.2992908              -8.1441
        42        0.0000           -0.2828340              -7.6963
        43                         -0.1912115              -5.2031
        44                         -0.1480378              -4.0283
        45                         -0.1304211              -3.5489
        46                         -0.1026762              -2.7940
        47                         -0.0849452              -2.3115
        48                         -0.0565689              -1.5393
       ...                                ...                  ...
        67                          0.5340332              14.5318
      -------------------------------------------------------------
                  HL-Gap            0.0646146 Eh            1.7583 eV

     #   Z          covCN         q      C6AA      α(0)
     1   6 C        3.739    -0.005    20.744     6.499
     2   7 N        2.704    -0.078    22.759     7.085
     3   6 C        2.912    -0.007    28.196     8.707
     4   7 N        1.792    -0.269    27.809     7.811
     5   6 C        2.831     0.162    24.502     8.111
     6   6 C        2.958    -0.035    28.873     8.813
     7   6 C        2.809     0.224    23.283     7.905
     8   8 O        1.766    -0.138    16.369     5.463
     9   7 N        2.739    -0.031    21.851     6.943
    10   6 C        3.703    -0.072    22.046     6.713
    11   6 C        2.721     0.317    21.614     7.611
    12   8 O        0.859    -0.337    20.457     6.064
    13   7 N        2.755    -0.038    21.972     6.962
    14   6 C        3.710    -0.076    22.100     6.719
    15   1 H        0.922     0.089     1.891     2.151
    16   1 H        0.924     0.118     1.631     1.997
    17   1 H        0.860     0.211     1.050     1.605
    18   1 H        0.926     0.098     1.805     2.101
    19   1 H        0.925     0.104     1.752     2.070
    20   1 H        0.924     0.117     1.637     2.001
    21   1 H        0.924     0.119     1.622     1.992
    22   1 H        0.925     0.108     1.712     2.046
    23   1 H        0.925     0.112     1.679     2.027
    24   1 H        0.925     0.117     1.634     1.999
    25   1 H        0.860     0.190     1.159     1.687

Wiberg/Mayer (AO) data.
largest (>0.10) Wiberg bond orders for each atom

     #   Z sym  total        # sym  WBO       # sym  WBO       # sym  WBO
 ---------------------------------------------------------------------------
     1   6 C    3.953 --     3 C    1.044     2 N    1.007    16 H    0.935
                            15 H    0.922
     2   7 N    2.994 --     1 C    1.007     8 O    0.948    17 H    0.932
     3   6 C    3.741 --     6 C    1.587     1 C    1.044    18 H    0.957
     4   7 N    2.907 --     5 C    1.722    25 H    0.929
     5   6 C    3.951 --     4 N    1.722    13 N    1.128     6 C    1.018
     6   6 C    3.922 --     3 C    1.587     7 C    1.143     5 C    1.018
     7   6 C    3.801 --     9 N    1.323     8 O    1.173     6 C    1.143
     8   8 O    2.319 --     7 C    1.173     2 N    0.948
     9   7 N    3.576 --     7 C    1.323    11 C    0.989    10 C    0.972
    10   6 C    3.911 --    19 H    0.972     9 N    0.972    21 H    0.956
                            20 H    0.955
    11   6 C    3.941 --    12 O    1.714    13 N    1.154     9 N    0.989
    12   8 O    2.040 --    11 C    1.714    13 N    0.140
    13   7 N    3.554 --    11 C    1.154     5 C    1.128    14 C    0.969
                            12 O    0.140
    14   6 C    3.895 --    13 N    0.969    24 H    0.967    22 H    0.957
                            23 H    0.955
    15   1 H    0.967 --     1 C    0.922
    16   1 H    0.978 --     1 C    0.935
    17   1 H    0.953 --     2 N    0.932
    18   1 H    0.988 --     3 C    0.957
    19   1 H    0.988 --    10 C    0.972
    20   1 H    0.977 --    10 C    0.955
    21   1 H    0.978 --    10 C    0.956
    22   1 H    0.976 --    14 C    0.957
    23   1 H    0.975 --    14 C    0.955
    24   1 H    0.983 --    14 C    0.967
    25   1 H    0.956 --     4 N    0.929
 ---------------------------------------------------------------------------

molecular dipole:
                 x           y           z       tot (Debye)
 q only:        1.653       0.523      -0.049
   full:        2.234       1.008       0.167       6.245

           -------------------------------------------------
          | TOTAL ENERGY              -42.128058576326 Eh   |
          | GRADIENT NORM               0.006056821754 Eh/α |
          | HOMO-LUMO GAP               1.758252741809 eV   |
           -------------------------------------------------

 * finished run on 2024/06/05 at 19:57:51.497
