   * xtb version 6.6.1 (8d0f1dd) compiled by 'conda@1efc2f54142f' on 2023-08-01
          program call               : xtb xtbopt.xyz --opt crude --input .xc2 --gfn2

   ID    Z sym.   atoms
    1    6 C      1, 3, 5-7, 10, 11, 14
    2    7 N      2, 4, 9, 13
    3    8 O      8, 12
    4    1 H      15-25

          :  Hamiltonian                  GFN2-xTB          :
 * total energy  :   -42.0811218 Eh     change       -0.7887024E-11 Eh
   *** GEOMETRY OPTIMIZATION CONVERGED AFTER 1 ITERATIONS ***

 final structure:
================
25
 xtb: 6.6.1 (8d0f1dd)
C            3.36077013045379        1.04601960527534       -0.01436967052213
N            2.37404383782828       -0.00131370301818       -0.02138479741240
C            2.59650060482315       -1.30689107668337        0.00613437799025
N            1.42412601467271       -1.97471975825372        0.00738135566451
C            0.41529204680340       -1.05870872991202       -0.01805670528924
C            1.01003058059822        0.19768159754311       -0.03795050368850
C            0.25253271331802        1.41058505435016       -0.07853498769532
O            0.67004462877828        2.54656428485155       -0.12660087131809
N           -1.16165931971966        1.14263855572624       -0.05527840014623
C           -1.98718970582851        2.19697259450056       -0.07493073018358
C           -1.77057877349856       -0.14571416219598       -0.03261005782415
O           -2.96327960147003       -0.27011338562978       -0.02152306257603
N           -0.91835564129888       -1.24838911033167       -0.02498475596028
C           -1.49766260496331       -2.58048734985638       -0.01797367207478
H            3.86587684965927        1.08347624680878        0.95176038384684
H            4.10297962924603        0.87343647898916       -0.79268639832400
H            2.86067207563521        1.99872163732167       -0.18799878673617
H            3.56302575264802       -1.77083214615200        0.02767216584749
H           -1.53982272779481        3.17614374642677       -0.06982344927043
H           -3.06458559676916        2.04934714539463        0.00887208796247
H           -4.78301919599865        2.15349622495234        0.62905978311642
H           -1.19619653021812       -3.12169653247403        0.87878496030048
H           -1.19781573649370       -3.12901117339580       -0.91091999897803
H           -2.58090478131859       -2.46892789237027       -0.01729855572827
H            1.32560686500761       -2.98003961026697        0.02443190689924

          :  Hamiltonian                  GFN2-xTB          :
         :: total energy             -42.081121764805 Eh    ::
         :: gradient norm              0.004618800460 Eh/a0 ::
         :: HOMO-LUMO gap              0.138164680375 eV    ::
         :: SCC energy               -42.601157743970 Eh    ::
         :: -> dispersion             -0.022887051851 Eh    ::
         :: repulsion energy           0.519953152462 Eh    ::

    * Orbital Energies and Occupations

         #    Occupation            Energy/Eh            Energy/eV
      -------------------------------------------------------------
         1        2.0000           -0.9162782             -24.9332
       ...           ...                  ...                  ...
        25        2.0000           -0.6701842             -18.2366
        26        2.0000           -0.6682117             -18.1830
        27        2.0000           -0.6621030             -18.0167
        28        2.0000           -0.6348196             -17.2743
        29        2.0000           -0.6303213             -17.1519
        30        2.0000           -0.6282777             -17.0963
        31        2.0000           -0.6212281             -16.9045
        32        2.0000           -0.6149186             -16.7328
        33        2.0000           -0.6095685             -16.5872
        34        2.0000           -0.5843476             -15.9009
        35        2.0000           -0.5649831             -15.3740
        36        2.0000           -0.5599755             -15.2377
        37        1.1478           -0.4709222             -12.8144 (HOMO)
        38        0.8299           -0.4658447             -12.6763 (LUMO)
        39        0.0220           -0.4329557             -11.7813
        40        0.0004           -0.4001830             -10.8895
        41        0.0000           -0.3715768             -10.1111
        42                         -0.2874479              -7.8219
        43                         -0.2086891              -5.6787
        44                         -0.1996428              -5.4326
        45                         -0.1519884              -4.1358
        46                         -0.1459698              -3.9720
        47                         -0.0818448              -2.2271
        48                         -0.0567830              -1.5451
       ...                                ...                  ...
        67                          0.5498161              14.9613
      -------------------------------------------------------------
                  HL-Gap            0.0050775 Eh            0.1382 eV

     #   Z          covCN         q      C6AA      α(0)
     1   6 C        3.691    -0.096    22.522     6.791
     2   7 N        2.834     0.083    19.793     6.608
     3   6 C        3.057     0.053    26.752     8.482
     4   7 N        2.796    -0.054    22.273     7.009
     5   6 C        3.045     0.105    25.636     8.304
     6   6 C        3.115    -0.024    28.441     8.736
     7   6 C        2.774     0.253    22.758     7.813
     8   8 O        0.857    -0.368    21.048     6.151
     9   7 N        2.741    -0.031    21.837     6.940
    10   6 C        2.814    -0.025    28.615     8.764
    11   6 C        2.738     0.309    21.748     7.635
    12   8 O        0.859    -0.350    20.707     6.101
    13   7 N        2.737    -0.050    22.202     6.998
    14   6 C        3.698    -0.074    22.087     6.722
    15   1 H        0.924     0.109     1.705     2.042
    16   1 H        0.925     0.106     1.730     2.057
    17   1 H        0.925     0.137     1.480     1.902
    18   1 H        0.926     0.127     1.561     1.954
    19   1 H        0.926     0.130     1.531     1.935
    20   1 H        0.924     0.133     1.512     1.923
    21   1 H        0.000    -0.002     7.697     5.073
    22   1 H        0.925     0.083     1.947     2.182
    23   1 H        0.925     0.084     1.941     2.179
    24   1 H        0.925     0.128     1.551     1.947
    25   1 H        0.860     0.231     0.960     1.535

Wiberg/Mayer (AO) data.
largest (>0.10) Wiberg bond orders for each atom

     #   Z sym  total        # sym  WBO       # sym  WBO       # sym  WBO
 ---------------------------------------------------------------------------
     1   6 C    3.915 --     2 N    0.985    16 H    0.963    17 H    0.961
                            15 H    0.956
     2   7 N    3.686 --     3 C    1.404     6 C    1.147     1 C    0.985
     3   6 C    3.885 --     2 N    1.404     4 N    1.286    18 H    0.952
     4   7 N    3.607 --     3 C    1.286     5 C    1.193    25 H    0.918
     5   6 C    3.906 --     6 C    1.322    13 N    1.196     4 N    1.193
     6   6 C    3.916 --     5 C    1.322     2 N    1.147     7 C    1.117
     7   6 C    3.876 --     8 O    1.670     6 C    1.117     9 N    0.989
     8   8 O    1.963 --     7 C    1.670     9 N    0.113
     9   7 N    3.631 --    10 C    1.347    11 C    1.016     7 C    0.989
                             8 O    0.113
    10   6 C    3.343 --     9 N    1.347    19 H    0.957    20 H    0.913
    11   6 C    3.914 --    12 O    1.712    13 N    1.085     9 N    1.016
    12   8 O    2.030 --    11 C    1.712    13 N    0.136
    13   7 N    3.575 --     5 C    1.196    11 C    1.085    14 C    0.970
                            12 O    0.136
    14   6 C    3.924 --    22 H    0.972    23 H    0.972    13 N    0.970
                            24 H    0.965
    15   1 H    0.985 --     1 C    0.956
    16   1 H    0.986 --     1 C    0.963
    17   1 H    0.981 --     1 C    0.961
    18   1 H    0.983 --     3 C    0.952
    19   1 H    0.980 --    10 C    0.957
    20   1 H    0.982 --    10 C    0.913
    21   1 H    0.074
    22   1 H    0.992 --    14 C    0.972
    23   1 H    0.992 --    14 C    0.972
    24   1 H    0.983 --    14 C    0.965
    25   1 H    0.946 --     4 N    0.918
 ---------------------------------------------------------------------------

molecular dipole:
                 x           y           z       tot (Debye)
 q only:        2.616      -2.135       0.033
   full:        2.853      -2.612       0.073       9.835

           -------------------------------------------------
          | TOTAL ENERGY              -42.081121764805 Eh   |
          | GRADIENT NORM               0.004618800460 Eh/α |
          | HOMO-LUMO GAP               0.138164680375 eV   |
           -------------------------------------------------

 * finished run on 2024/06/05 at 19:58:03.270
