   * xtb version 6.6.1 (8d0f1dd) compiled by 'conda@1efc2f54142f' on 2023-08-01
          program call               : xtb struc.xyz --opt loose --input .xc1 --gfn2

   ID    Z sym.   atoms
    1    6 C      1, 3, 5-7, 10, 11, 14
    2    7 N      2, 4, 9, 13
    3    8 O      8, 12
    4    1 H      15-25
constraining bond 10 11 to    5.0000000 Å, actual value:    2.3893559 Å

          :  Hamiltonian                  GFN2-xTB          :
 * total energy  :     6.4290497 Eh     change       -0.6650680E-10 Eh
 * total energy  :   -15.5320735 Eh     change       -0.2196112E+02 Eh
 * total energy  :   -29.0073043 Eh     change       -0.1347523E+02 Eh
 * total energy  :   -37.0127702 Eh     change       -0.8005466E+01 Eh
 * total energy  :   -40.7343024 Eh     change       -0.3721532E+01 Eh
 * total energy  :   -41.4346306 Eh     change       -0.7003282E+00 Eh
 * total energy  :   -41.5036335 Eh     change       -0.6900291E-01 Eh
 * total energy  :   -41.5628487 Eh     change       -0.5921526E-01 Eh
 * total energy  :   -41.5994730 Eh     change       -0.3662428E-01 Eh
 * total energy  :   -41.6155851 Eh     change       -0.1611204E-01 Eh
 * total energy  :   -42.1095247 Eh     change       -0.2079531E-03 Eh
 * total energy  :   -42.1095865 Eh     change       -0.6175145E-04 Eh
 * total energy  :   -42.1096767 Eh     change       -0.9019795E-04 Eh
 * total energy  :   -42.1094337 Eh     change        0.2429161E-03 Eh
 * total energy  :   -42.1097931 Eh     change       -0.3593226E-03 Eh
 * total energy  :   -42.1097805 Eh     change        0.1256221E-04 Eh
 * total energy  :   -42.1098805 Eh     change       -0.1000171E-03 Eh
 * total energy  :   -42.1099164 Eh     change       -0.3589041E-04 Eh
 * total energy  :   -42.1099578 Eh     change       -0.4135075E-04 Eh
   *** GEOMETRY OPTIMIZATION CONVERGED AFTER 68 ITERATIONS ***

 final structure:
================
25
 xtb: 6.6.1 (8d0f1dd)
C            2.71324569141612        1.29233628000652       -0.00260869756543
N            1.94269328408622        0.08004049103985        0.03851781064015
C            2.40938879730277       -1.16385041723736       -0.04595738291397
N            1.38256134575362       -2.02166157640281        0.06688529053608
C            0.22653752103755       -1.28088617254024        0.22193211201169
C            0.58633526150213        0.04347226477961        0.19882145308248
C           -0.22180008928159        1.32760839557122        0.40217527546246
O           -0.11020084172716        1.88427676138600        1.49127109396035
N           -0.88830056276933        1.65315354196761       -0.66825274050600
C           -1.64739041346112        2.84862132278536       -0.76577812059285
C           -1.67340528029987       -1.59519334494631        1.52588805492833
O           -1.99246490651265       -1.11903527313182        2.53380481082116
N           -1.02907217660844       -1.88575808097813        0.45696562884798
C           -1.54390353656898       -2.84600106445578       -0.52587733862710
H            2.63639685389098        1.80763285815576        0.95744975523384
H            3.75458939910773        1.06324058997904       -0.21488489224579
H            2.31644576596761        1.95532805860601       -0.77223111044278
H            3.43570855756258       -1.43983198948604       -0.18586072621297
H           -1.04089100592933        3.73090585285657       -0.53551457403794
H           -2.02174888807809        2.92166284761222       -1.78672727208100
H           -2.49518153370085        2.83632147314122       -0.07201403859905
H           -1.12404096087500       -3.83895529907310       -0.35539291059132
H           -1.28367847038782       -2.50160043553075       -1.52532491133028
H           -2.62660178507596       -2.90533342287101       -0.44205551569371
H            1.45520948774694       -3.02825511963058        0.03594056381943

          :  Hamiltonian                  GFN2-xTB          :
         :: total energy             -42.109957762757 Eh    ::
         :: gradient norm              0.002806516699 Eh/a0 ::
         :: HOMO-LUMO gap              1.199537556047 eV    ::
         :: SCC energy               -42.652293598374 Eh    ::
         :: -> dispersion             -0.021505375747 Eh    ::
         :: repulsion energy           0.542098260790 Eh    ::

    * Orbital Energies and Occupations

         #    Occupation            Energy/Eh            Energy/eV
      -------------------------------------------------------------
         1        2.0000           -0.9248341             -25.1660
       ...           ...                  ...                  ...
        25        2.0000           -0.6526482             -17.7595
        26        2.0000           -0.6509858             -17.7142
        27        2.0000           -0.6447371             -17.5442
        28        1.9999           -0.6365681             -17.3219
        29        1.9999           -0.6318398             -17.1932
        30        1.9998           -0.6176884             -16.8082
        31        1.9997           -0.6105582             -16.6141
        32        1.9992           -0.5929244             -16.1343
        33        1.9990           -0.5898986             -16.0520
        34        1.9983           -0.5818873             -15.8340
        35        1.9504           -0.5277232             -14.3601
        36        1.7415           -0.4998047             -13.6004
        37        1.6949           -0.4967532             -13.5173 (HOMO)
        38        0.5111           -0.4526710             -12.3178 (LUMO)
        39        0.0831           -0.4199034             -11.4262
        40        0.0193           -0.3962967             -10.7838
        41        0.0037           -0.3698818             -10.0650
        42        0.0002           -0.3197269              -8.7002
        43        0.0000           -0.2236481              -6.0858
        44                         -0.1882655              -5.1230
        45                         -0.1390021              -3.7824
        46                         -0.0796167              -2.1665
        47                         -0.0527420              -1.4352
        48                         -0.0452713              -1.2319
       ...                                ...                  ...
        67                          0.8609543              23.4278
      -------------------------------------------------------------
                  HL-Gap            0.0440822 Eh            1.1995 eV

     #   Z          covCN         q      C6AA      α(0)
     1   6 C        3.693    -0.085    22.316     6.759
     2   7 N        2.863     0.084    19.786     6.606
     3   6 C        3.033     0.050    26.846     8.499
     4   7 N        2.801    -0.058    22.354     7.022
     5   6 C        3.063     0.082    26.122     8.381
     6   6 C        3.091     0.011    27.653     8.619
     7   6 C        2.760     0.276    22.326     7.738
     8   8 O        0.858    -0.411    21.896     6.274
     9   7 N        1.833    -0.262    27.662     7.794
    10   6 C        3.700    -0.022    21.123     6.573
    11   6 C        1.822     0.275    24.885     8.060
    12   8 O        0.856    -0.116    16.760     5.489
    13   7 N        2.727     0.014    21.003     6.807
    14   6 C        3.701    -0.080    22.200     6.738
    15   1 H        0.924     0.125     1.571     1.960
    16   1 H        0.925     0.101     1.779     2.086
    17   1 H        0.924     0.114     1.666     2.019
    18   1 H        0.926     0.124     1.580     1.966
    19   1 H        0.924     0.079     1.985     2.203
    20   1 H        0.925     0.081     1.971     2.195
    21   1 H        0.924     0.081     1.971     2.195
    22   1 H        0.924     0.094     1.838     2.120
    23   1 H        0.925     0.106     1.730     2.057
    24   1 H        0.925     0.110     1.694     2.035
    25   1 H        0.860     0.226     0.983     1.553

Wiberg/Mayer (AO) data.
largest (>0.10) Wiberg bond orders for each atom

     #   Z sym  total        # sym  WBO       # sym  WBO       # sym  WBO
 ---------------------------------------------------------------------------
     1   6 C    3.923 --     2 N    0.988    16 H    0.975    17 H    0.960
                            15 H    0.953
     2   7 N    3.695 --     3 C    1.358     6 C    1.207     1 C    0.988
     3   6 C    3.840 --     2 N    1.358     4 N    1.307    18 H    0.951
     4   7 N    3.564 --     3 C    1.307     5 C    1.156    25 H    0.921
     5   6 C    3.851 --     6 C    1.493     4 N    1.156    13 N    0.982
     6   6 C    3.883 --     5 C    1.493     2 N    1.207     7 C    0.893
     7   6 C    3.930 --     8 O    1.551     9 N    1.426     6 C    0.893
     8   8 O    1.829 --     7 C    1.551     9 N    0.171
     9   7 N    2.700 --     7 C    1.426    10 C    1.056     8 O    0.171
    10   6 C    3.906 --     9 N    1.056    20 H    0.956    19 H    0.934
                            21 H    0.930
    11   6 C    3.519 --    12 O    2.030    13 N    1.407
    12   8 O    2.272 --    11 C    2.030    13 N    0.183
    13   7 N    3.561 --    11 C    1.407     5 C    0.982    14 C    0.934
                            12 O    0.183
    14   6 C    3.897 --    24 H    0.973    23 H    0.973    22 H    0.971
                            13 N    0.934
    15   1 H    0.982 --     1 C    0.953
    16   1 H    0.989 --     1 C    0.975
    17   1 H    0.986 --     1 C    0.960
    18   1 H    0.983 --     3 C    0.951
    19   1 H    0.947 --    10 C    0.934
    20   1 H    0.965 --    10 C    0.956
    21   1 H    0.946 --    10 C    0.930
    22   1 H    0.991 --    14 C    0.971
    23   1 H    0.988 --    14 C    0.973
    24   1 H    0.987 --    14 C    0.973
    25   1 H    0.948 --     4 N    0.921
 ---------------------------------------------------------------------------

molecular dipole:
                 x           y           z       tot (Debye)
 q only:        1.659      -3.122      -1.058
   full:        1.784      -3.397      -1.013      10.088

           -------------------------------------------------
          | TOTAL ENERGY              -42.109957762757 Eh   |
          | GRADIENT NORM               0.002806516699 Eh/α |
          | HOMO-LUMO GAP               1.199537556047 eV   |
           -------------------------------------------------

 * finished run on 2024/06/05 at 20:00:17.611
