   * xtb version 6.6.1 (8d0f1dd) compiled by 'conda@1efc2f54142f' on 2023-08-01
          program call               : xtb xtbopt.xyz --opt crude --input .xc2 --gfn2

   ID    Z sym.   atoms
    1    6 C      1, 3, 5-7, 10, 11, 14
    2    7 N      2, 4, 9, 13
    3    8 O      8, 12
    4    1 H      15-25
########################################################################
[WARNING] Please study the warnings concerning your input carefully
-1- readin_getIntValue: could not parse ''
########################################################################

          :  Hamiltonian                  GFN2-xTB          :
 * total energy  :   -42.1099578 Eh     change        0.3268497E-12 Eh
 * total energy  :   -42.1100476 Eh     change       -0.8985086E-04 Eh
   *** GEOMETRY OPTIMIZATION CONVERGED AFTER 2 ITERATIONS ***

 final structure:
================
25
 xtb: 6.6.1 (8d0f1dd)
C            2.71616594888397        1.29140769554230       -0.00295372726989
N            1.94653958618522        0.07865051413021        0.03871967570026
C            2.41184260689023       -1.16594969076622       -0.04235164525070
N            1.38353731096862       -2.02241488695307        0.07011685202490
C            0.22797910986637       -1.27947722244795        0.21919075784076
C            0.59015269047610        0.04361935109801        0.19611043965143
C           -0.21677482707165        1.32670022807543        0.40076955727518
O           -0.10060875724526        1.88645515484989        1.48786383290768
N           -0.89216374274752        1.64624460261961       -0.66590750928642
C           -1.65429193075050        2.83891514374329       -0.75975626574655
C           -1.68178396744104       -1.57165407457765        1.51117271025980
O           -1.98474559368554       -1.11199991426640        2.53205505466757
N           -1.03105878653901       -1.87747455159105        0.45025827686951
C           -1.54496886663390       -2.84189335915085       -0.52883168879629
H            2.63308761646765        1.81018931982405        0.95457675832312
H            3.75874900277476        1.06301330030364       -0.20917295021247
H            2.32219074842548        1.95070124099203       -0.77719803885405
H            3.43800829593770       -1.44356986954740       -0.17992851167743
H           -1.04820314241257        3.72218049566739       -0.53089401654399
H           -2.03023278253369        2.91348920600062       -1.78009973010766
H           -2.50054740823885        2.82614500029161       -0.06459872558768
H           -1.12539922590795       -3.83393100144501       -0.35468839795709
H           -1.28438931949600       -2.50057234633625       -1.52898716057508
H           -2.62770194465550       -2.90137130181178       -0.44526933394373
H            1.45504889258092       -3.02916449264135        0.04097540419258

          :  Hamiltonian                  GFN2-xTB          :
         :: total energy             -42.110047617107 Eh    ::
         :: gradient norm              0.002729957601 Eh/a0 ::
         :: HOMO-LUMO gap              1.201507420558 eV    ::
         :: SCC energy               -42.652723353997 Eh    ::
         :: -> dispersion             -0.021530951733 Eh    ::
         :: repulsion energy           0.542438047522 Eh    ::

    * Orbital Energies and Occupations

         #    Occupation            Energy/Eh            Energy/eV
      -------------------------------------------------------------
         1        2.0000           -0.9247755             -25.1644
       ...           ...                  ...                  ...
        25        2.0000           -0.6526799             -17.7603
        26        2.0000           -0.6511875             -17.7197
        27        2.0000           -0.6450060             -17.5515
        28        1.9999           -0.6366093             -17.3230
        29        1.9999           -0.6320027             -17.1977
        30        1.9998           -0.6180206             -16.8172
        31        1.9997           -0.6106106             -16.6156
        32        1.9992           -0.5931077             -16.1393
        33        1.9990           -0.5899020             -16.0521
        34        1.9983           -0.5817637             -15.8306
        35        1.9503           -0.5278704             -14.3641
        36        1.7414           -0.4999561             -13.6045
        37        1.6955           -0.4969443             -13.5225 (HOMO)
        38        0.5103           -0.4527897             -12.3210 (LUMO)
        39        0.0835           -0.4201442             -11.4327
        40        0.0193           -0.3964126             -10.7869
        41        0.0036           -0.3699298             -10.0663
        42        0.0002           -0.3196365              -8.6978
        43        0.0000           -0.2234556              -6.0805
        44                         -0.1883278              -5.1247
        45                         -0.1387337              -3.7751
        46                         -0.0791354              -2.1534
        47                         -0.0524893              -1.4283
        48                         -0.0449151              -1.2222
       ...                                ...                  ...
        67                          0.8588133              23.3695
      -------------------------------------------------------------
                  HL-Gap            0.0441546 Eh            1.2015 eV

     #   Z          covCN         q      C6AA      α(0)
     1   6 C        3.693    -0.085    22.316     6.759
     2   7 N        2.863     0.084    19.784     6.606
     3   6 C        3.033     0.050    26.845     8.498
     4   7 N        2.801    -0.058    22.350     7.021
     5   6 C        3.063     0.082    26.117     8.380
     6   6 C        3.092     0.011    27.652     8.619
     7   6 C        2.761     0.276    22.329     7.738
     8   8 O        0.858    -0.411    21.902     6.275
     9   7 N        1.833    -0.263    27.673     7.796
    10   6 C        3.700    -0.021    21.118     6.572
    11   6 C        1.823     0.275    24.883     8.060
    12   8 O        0.856    -0.117    16.765     5.490
    13   7 N        2.727     0.015    20.998     6.806
    14   6 C        3.701    -0.080    22.201     6.738
    15   1 H        0.924     0.126     1.569     1.959
    16   1 H        0.925     0.101     1.778     2.085
    17   1 H        0.924     0.113     1.667     2.019
    18   1 H        0.926     0.124     1.579     1.965
    19   1 H        0.924     0.079     1.985     2.204
    20   1 H        0.925     0.081     1.972     2.196
    21   1 H        0.924     0.081     1.972     2.196
    22   1 H        0.924     0.095     1.834     2.118
    23   1 H        0.925     0.106     1.732     2.058
    24   1 H        0.925     0.110     1.693     2.035
    25   1 H        0.860     0.226     0.982     1.552

Wiberg/Mayer (AO) data.
largest (>0.10) Wiberg bond orders for each atom

     #   Z sym  total        # sym  WBO       # sym  WBO       # sym  WBO
 ---------------------------------------------------------------------------
     1   6 C    3.922 --     2 N    0.988    16 H    0.975    17 H    0.960
                            15 H    0.953
     2   7 N    3.695 --     3 C    1.358     6 C    1.207     1 C    0.988
     3   6 C    3.840 --     2 N    1.358     4 N    1.307    18 H    0.951
     4   7 N    3.564 --     3 C    1.307     5 C    1.157    25 H    0.921
     5   6 C    3.852 --     6 C    1.493     4 N    1.157    13 N    0.982
     6   6 C    3.884 --     5 C    1.493     2 N    1.207     7 C    0.894
     7   6 C    3.930 --     8 O    1.551     9 N    1.425     6 C    0.894
     8   8 O    1.829 --     7 C    1.551     9 N    0.171
     9   7 N    2.700 --     7 C    1.425    10 C    1.057     8 O    0.171
    10   6 C    3.906 --     9 N    1.057    20 H    0.955    19 H    0.933
                            21 H    0.930
    11   6 C    3.518 --    12 O    2.029    13 N    1.407
    12   8 O    2.271 --    11 C    2.029    13 N    0.183
    13   7 N    3.561 --    11 C    1.407     5 C    0.982    14 C    0.934
                            12 O    0.183
    14   6 C    3.897 --    23 H    0.973    24 H    0.973    22 H    0.971
                            13 N    0.934
    15   1 H    0.982 --     1 C    0.953
    16   1 H    0.989 --     1 C    0.975
    17   1 H    0.986 --     1 C    0.960
    18   1 H    0.983 --     3 C    0.951
    19   1 H    0.947 --    10 C    0.933
    20   1 H    0.965 --    10 C    0.955
    21   1 H    0.946 --    10 C    0.930
    22   1 H    0.991 --    14 C    0.971
    23   1 H    0.988 --    14 C    0.973
    24   1 H    0.987 --    14 C    0.973
    25   1 H    0.948 --     4 N    0.921
 ---------------------------------------------------------------------------

molecular dipole:
                 x           y           z       tot (Debye)
 q only:        1.654      -3.121      -1.061
   full:        1.775      -3.388      -1.021      10.063

           -------------------------------------------------
          | TOTAL ENERGY              -42.110047617107 Eh   |
          | GRADIENT NORM               0.002729957601 Eh/α |
          | HOMO-LUMO GAP               1.201507420558 eV   |
           -------------------------------------------------

 * finished run on 2024/06/05 at 20:00:17.762
