   * xtb version 6.6.1 (8d0f1dd) compiled by 'conda@1efc2f54142f' on 2023-08-01
          program call               : xtb xtbopt.xyz --opt crude --input .xc2 --gfn2

   ID    Z sym.   atoms
    1    6 C      1, 3, 5-7, 10, 11, 14
    2    7 N      2, 4, 9, 13
    3    8 O      8, 12
    4    1 H      15-25

          :  Hamiltonian                  GFN2-xTB          :
 * total energy  :   -42.0782807 Eh     change       -0.3022649E-10 Eh
   *** GEOMETRY OPTIMIZATION CONVERGED AFTER 1 ITERATIONS ***

 final structure:
================
25
 xtb: 6.6.1 (8d0f1dd)
C            3.29159450997339        1.25690897984133        0.06703001273964
N            2.36345629168369        0.15657489793111        0.03524772834528
C            2.66094016971347       -1.13105079533973        0.02375463904575
N            1.53677160907578       -1.86867176282084        0.00049776487951
C            0.46528624234365       -1.00485900572813       -0.00490252125320
C            0.99676713787399        0.28126751955793        0.01900518947108
C            0.16244984182669        1.46394793008556        0.00767789932746
O            0.55457689186422        2.60785625569545        0.02930616539576
N           -1.19129916801515        1.11991082403925       -0.03560754658185
C           -2.15412949641358        2.21923019493463       -0.05975237727452
C           -1.75825334842557       -0.12494139965945       -0.07000002401028
O           -2.93749832790675       -0.32160566130566       -0.12733884393596
N           -0.85780746661103       -1.27312998305967       -0.03337204401728
C           -1.40619490274500       -2.49929654690889       -0.03464900537031
H            3.86222130361933        1.24321213120599        0.99583374842641
H            3.98436447264114        1.19214595427133       -0.77143083689534
H            2.72975150563566        2.18880466879389        0.00613837107948
H            3.65503426827454       -1.53626881801389        0.03000035854412
H           -1.59751432092832        3.15174867275409       -0.02086502751129
H           -2.74704947415983        2.16998194842702       -0.97151260871728
H           -2.82244171628324        2.14051641181019        0.79605090849727
H           -0.78457686293526       -3.36991595555562       -0.01274671051518
H           -2.47516795346139       -2.56733520101484       -0.07573340856120
H           -3.87259324888937       -4.79880980166095        0.25449875181407
H            1.50174355634891       -2.87798291668020       -0.01595896502227

          :  Hamiltonian                  GFN2-xTB          :
         :: total energy             -42.078280736690 Eh    ::
         :: gradient norm              0.003201616584 Eh/a0 ::
         :: HOMO-LUMO gap              0.016248860247 eV    ::
         :: SCC energy               -42.603529960133 Eh    ::
         :: -> dispersion             -0.022593345376 Eh    ::
         :: repulsion energy           0.525179589611 Eh    ::

    * Orbital Energies and Occupations

         #    Occupation            Energy/Eh            Energy/eV
      -------------------------------------------------------------
         1        2.0000           -0.9219466             -25.0874
       ...           ...                  ...                  ...
        25        2.0000           -0.6691799             -18.2093
        26        2.0000           -0.6676522             -18.1677
        27        2.0000           -0.6586056             -17.9216
        28        2.0000           -0.6380479             -17.3622
        29        2.0000           -0.6299396             -17.1415
        30        2.0000           -0.6280277             -17.0895
        31        2.0000           -0.6219259             -16.9235
        32        2.0000           -0.5972956             -16.2532
        33        2.0000           -0.5906833             -16.0733
        34        2.0000           -0.5832364             -15.8707
        35        2.0000           -0.5631376             -15.3238
        36        1.9999           -0.5615147             -15.2796
        37        1.0122           -0.4792064             -13.0399 (HOMO)
        38        0.9745           -0.4786092             -13.0236 (LUMO)
        39        0.0132           -0.4393451             -11.9552
        40        0.0001           -0.3995275             -10.8717
        41        0.0000           -0.3728071             -10.1446
        42                         -0.2884188              -7.8483
        43                         -0.2140496              -5.8246
        44                         -0.2025861              -5.5126
        45                         -0.1518735              -4.1327
        46                         -0.1350259              -3.6742
        47                         -0.0682135              -1.8562
        48                         -0.0432595              -1.1772
       ...                                ...                  ...
        67                          0.5574429              15.1688
      -------------------------------------------------------------
                  HL-Gap            0.0005971 Eh            0.0162 eV

     #   Z          covCN         q      C6AA      α(0)
     1   6 C        3.692    -0.099    22.579     6.799
     2   7 N        2.835     0.093    19.630     6.580
     3   6 C        3.058     0.061    26.568     8.453
     4   7 N        2.793    -0.054    22.291     7.012
     5   6 C        3.042     0.091    25.931     8.352
     6   6 C        3.120    -0.019    28.299     8.712
     7   6 C        2.763     0.268    22.479     7.764
     8   8 O        0.858    -0.370    21.098     6.158
     9   7 N        2.745    -0.080    22.797     7.091
    10   6 C        3.713    -0.064    21.870     6.682
    11   6 C        2.734     0.311    21.721     7.630
    12   8 O        0.859    -0.339    20.492     6.069
    13   7 N        2.735     0.009    21.109     6.824
    14   6 C        2.797    -0.064    29.568     8.908
    15   1 H        0.925     0.111     1.685     2.030
    16   1 H        0.925     0.110     1.701     2.039
    17   1 H        0.925     0.142     1.444     1.879
    18   1 H        0.926     0.131     1.529     1.934
    19   1 H        0.925     0.115     1.654     2.011
    20   1 H        0.925     0.097     1.813     2.106
    21   1 H        0.925     0.097     1.813     2.106
    22   1 H        0.927     0.084     1.942     2.179
    23   1 H        0.926     0.131     1.530     1.934
    24   1 H        0.000     0.007     7.311     4.944
    25   1 H        0.860     0.232     0.959     1.534

Wiberg/Mayer (AO) data.
largest (>0.10) Wiberg bond orders for each atom

     #   Z sym  total        # sym  WBO       # sym  WBO       # sym  WBO
 ---------------------------------------------------------------------------
     1   6 C    3.910 --     2 N    0.982    16 H    0.960    17 H    0.959
                            15 H    0.957
     2   7 N    3.718 --     3 C    1.418     6 C    1.169     1 C    0.982
     3   6 C    3.915 --     2 N    1.418     4 N    1.307    18 H    0.950
     4   7 N    3.575 --     3 C    1.307     5 C    1.157    25 H    0.917
     5   6 C    3.883 --     6 C    1.329    13 N    1.176     4 N    1.157
     6   6 C    3.863 --     5 C    1.329     2 N    1.169     7 C    1.072
     7   6 C    3.929 --     8 O    1.677     9 N    1.087     6 C    1.072
     8   8 O    2.005 --     7 C    1.677     9 N    0.144
     9   7 N    3.583 --    11 C    1.169     7 C    1.087    10 C    0.961
                            12 O    0.153     8 O    0.144
    10   6 C    3.917 --    19 H    0.969    21 H    0.969    20 H    0.969
                             9 N    0.961
    11   6 C    3.930 --    12 O    1.731     9 N    1.169    13 N    0.932
    12   8 O    2.065 --    11 C    1.731     9 N    0.153
    13   7 N    3.632 --    14 C    1.292     5 C    1.176    11 C    0.932
    14   6 C    3.338 --    13 N    1.292    22 H    0.971    23 H    0.958
    15   1 H    0.986 --     1 C    0.957
    16   1 H    0.987 --     1 C    0.960
    17   1 H    0.980 --     1 C    0.959
    18   1 H    0.982 --     3 C    0.950
    19   1 H    0.986 --    10 C    0.969
    20   1 H    0.990 --    10 C    0.969
    21   1 H    0.990 --    10 C    0.969
    22   1 H    0.992 --    14 C    0.971
    23   1 H    0.982 --    14 C    0.958
    24   1 H    0.003
    25   1 H    0.946 --     4 N    0.917
 ---------------------------------------------------------------------------

molecular dipole:
                 x           y           z       tot (Debye)
 q only:        2.912      -1.740       0.033
   full:        3.214      -2.332       0.036      10.094

           -------------------------------------------------
          | TOTAL ENERGY              -42.078280736690 Eh   |
          | GRADIENT NORM               0.003201616584 Eh/α |
          | HOMO-LUMO GAP               0.016248860247 eV   |
           -------------------------------------------------

 * finished run on 2024/06/05 at 19:58:07.376
