   * xtb version 6.6.1 (8d0f1dd) compiled by 'conda@1efc2f54142f' on 2023-08-01
          program call               : xtb struc.xyz --opt loose --input .xc1 --gfn2

   ID    Z sym.   atoms
    1    6 C      1, 3, 5-7, 10, 11, 14
    2    7 N      2, 4, 9, 13
    3    8 O      8, 12
    4    1 H      15-25
constraining bond 1 3 to    5.0000000 Å, actual value:    2.4701363 Å

          :  Hamiltonian                  GFN2-xTB          :
 * total energy  :   -19.3922971 Eh     change       -0.6650680E-10 Eh
 * total energy  :   -29.0935111 Eh     change       -0.9701214E+01 Eh
 * total energy  :   -35.6572956 Eh     change       -0.6563784E+01 Eh
 * total energy  :   -39.6646296 Eh     change       -0.4007334E+01 Eh
 * total energy  :   -41.3881686 Eh     change       -0.1723539E+01 Eh
 * total energy  :   -41.6662742 Eh     change       -0.2781057E+00 Eh
 * total energy  :   -41.6814111 Eh     change       -0.1513689E-01 Eh
 * total energy  :   -41.6980321 Eh     change       -0.1662095E-01 Eh
 * total energy  :   -41.7387947 Eh     change       -0.4076267E-01 Eh
 * total energy  :   -41.7687501 Eh     change       -0.2995536E-01 Eh
 * total energy  :   -42.0479902 Eh     change       -0.3143287E-01 Eh
 * total energy  :   -42.0555132 Eh     change       -0.7523015E-02 Eh
 * total energy  :   -42.0588875 Eh     change       -0.3374265E-02 Eh
 * total energy  :   -42.0601681 Eh     change       -0.1280626E-02 Eh
 * total energy  :   -42.0608264 Eh     change       -0.6583152E-03 Eh
 * total energy  :   -42.0611068 Eh     change       -0.2804112E-03 Eh
 * total energy  :   -42.0611578 Eh     change       -0.5099770E-04 Eh
 * total energy  :   -42.0612643 Eh     change       -0.1064668E-03 Eh
 * total energy  :   -42.0613119 Eh     change       -0.4761404E-04 Eh
   *** GEOMETRY OPTIMIZATION CONVERGED AFTER 31 ITERATIONS ***

 final structure:
================
25
 xtb: 6.6.1 (8d0f1dd)
C            3.06652890734451        1.83251468740503        0.03767471566984
N            2.43958768464339        0.55533685379947        0.00594122401723
C            2.31560873497915       -3.10258208725290       -0.07300763865873
N            1.22775993881115       -2.42054830701312       -0.00668532010578
C            0.63677594789081       -1.12221538960752       -0.00684729990317
C            1.19168846478763        0.21263252735200       -0.00060756383986
C            0.18030877639646        1.36192624443959       -0.00539455765701
O            0.53396987714585        2.51946835676396       -0.01384508457653
N           -1.14238037989712        1.05355027857851       -0.00073256937117
C           -2.12491785442114        2.13207207481824       -0.00000788902711
C           -1.66535844737679       -0.21446650975446        0.00920771235674
O           -2.85335866866249       -0.40242473451836        0.02183291625770
N           -0.74452604336444       -1.26509289293749        0.00158840018533
C           -1.40754021570986       -2.57000405988128       -0.00300361596948
H            3.49244625370969        1.97436828891945        1.03546541017135
H            3.88861195864209        1.79940366700092       -0.68005391184068
H            2.38787680277511        2.66087330425563       -0.19397215548891
H            3.29677184841997       -2.64285922923508       -0.14253685331910
H           -1.60122433956185        3.08386297292729        0.01054980182878
H           -2.74991047816687        2.05194991244432       -0.88906251553997
H           -2.76257255547537        2.03818818469891        0.87856201686350
H           -1.20714945316763       -3.14220311175574        0.90725763890786
H           -1.19352259792619       -3.14128814044393       -0.90957161408582
H           -2.48156985355061       -2.36288741902760       -0.00803898636173
H            0.43652720583456       -3.07133693037583        0.05645935738668

          :  Hamiltonian                  GFN2-xTB          :
         :: total energy             -42.061311930208 Eh    ::
         :: gradient norm              0.002546823434 Eh/a0 ::
         :: HOMO-LUMO gap              0.183604014982 eV    ::
         :: SCC energy               -42.555837070167 Eh    ::
         :: -> dispersion             -0.021713604552 Eh    ::
         :: repulsion energy           0.494235200656 Eh    ::

    * Orbital Energies and Occupations

         #    Occupation            Energy/Eh            Energy/eV
      -------------------------------------------------------------
         1        2.0000           -0.8953225             -24.3630
       ...           ...                  ...                  ...
        25        1.9999           -0.6732241             -18.3194
        26        1.9998           -0.6628324             -18.0366
        27        1.9995           -0.6465155             -17.5926
        28        1.9994           -0.6434694             -17.5097
        29        1.9989           -0.6345337             -17.2665
        30        1.9986           -0.6310811             -17.1726
        31        1.9974           -0.6212170             -16.9042
        32        1.9947           -0.6096911             -16.5905
        33        1.9914           -0.6020739             -16.3833
        34        1.9809           -0.5893851             -16.0380
        35        1.9712           -0.5828668             -15.8606
        36        1.6138           -0.5385662             -14.6551
        37        1.3086           -0.5260279             -14.3139 (HOMO)
        38        1.1055           -0.5192806             -14.1303 (LUMO)
        39        0.0383           -0.4536161             -12.3435
        40        0.0019           -0.4060214             -11.0484
        41        0.0005           -0.3843957             -10.4599
        42        0.0000           -0.3059448              -8.3252
        43                         -0.2260438              -6.1510
        44                         -0.2019259              -5.4947
        45                         -0.1626292              -4.4254
        46                         -0.1126930              -3.0665
        47                         -0.0990037              -2.6940
        48                         -0.0719359              -1.9575
       ...                                ...                  ...
        67                          0.5246107              14.2754
      -------------------------------------------------------------
                  HL-Gap            0.0067473 Eh            0.1836 eV

     #   Z          covCN         q      C6AA      α(0)
     1   6 C        3.686    -0.060    21.856     6.693
     2   7 N        1.827    -0.114    24.255     7.298
     3   6 C        1.836    -0.057    32.708     9.239
     4   7 N        2.692    -0.012    21.498     6.886
     5   6 C        2.812     0.083    26.141     8.377
     6   6 C        2.875     0.059    26.675     8.467
     7   6 C        2.771     0.267    22.498     7.768
     8   8 O        0.860    -0.326    20.258     6.035
     9   7 N        2.740    -0.059    22.386     7.027
    10   6 C        3.711    -0.063    21.858     6.681
    11   6 C        2.735     0.318    21.591     7.608
    12   8 O        0.860    -0.357    20.834     6.120
    13   7 N        2.749    -0.057    22.335     7.019
    14   6 C        3.707    -0.091    22.394     6.764
    15   1 H        0.924     0.127     1.556     1.951
    16   1 H        0.924     0.125     1.574     1.962
    17   1 H        0.924     0.155     1.359     1.823
    18   1 H        0.925     0.122     1.595     1.975
    19   1 H        0.925     0.115     1.653     2.011
    20   1 H        0.925     0.107     1.719     2.050
    21   1 H        0.925     0.108     1.715     2.048
    22   1 H        0.924     0.098     1.805     2.101
    23   1 H        0.924     0.098     1.800     2.098
    24   1 H        0.924     0.150     1.393     1.845
    25   1 H        0.860     0.264     0.831     1.428

Wiberg/Mayer (AO) data.
largest (>0.10) Wiberg bond orders for each atom

     #   Z sym  total        # sym  WBO       # sym  WBO       # sym  WBO
 ---------------------------------------------------------------------------
     1   6 C    3.840 --     2 N    1.094    16 H    0.921    15 H    0.910
                            17 H    0.857
     2   7 N    2.811 --     6 C    1.579     1 C    1.094
     3   6 C    2.690 --     4 N    1.650    18 H    0.916
     4   7 N    3.640 --     3 C    1.650     5 C    1.063    25 H    0.830
     5   6 C    3.633 --     6 C    1.207    13 N    1.186     4 N    1.063
     6   6 C    3.911 --     2 N    1.579     5 C    1.207     7 C    0.917
     7   6 C    3.888 --     8 O    1.687     9 N    1.181     6 C    0.917
     8   8 O    2.021 --     7 C    1.687     9 N    0.134
     9   7 N    3.552 --     7 C    1.181    11 C    1.105    10 C    0.958
                             8 O    0.134    12 O    0.115
    10   6 C    3.891 --    19 H    0.967    21 H    0.960    20 H    0.959
                             9 N    0.958
    11   6 C    3.940 --    12 O    1.680     9 N    1.105    13 N    1.072
    12   8 O    2.002 --    11 C    1.680     9 N    0.115    13 N    0.113
    13   7 N    3.471 --     5 C    1.186    11 C    1.072    14 C    0.977
                            12 O    0.113
    14   6 C    3.911 --    13 N    0.977    23 H    0.954    22 H    0.950
                            24 H    0.937
    15   1 H    0.946 --     1 C    0.910
    16   1 H    0.946 --     1 C    0.921
    17   1 H    0.903 --     1 C    0.857
    18   1 H    0.934 --     3 C    0.916
    19   1 H    0.984 --    10 C    0.967
    20   1 H    0.980 --    10 C    0.959
    21   1 H    0.980 --    10 C    0.960
    22   1 H    0.980 --    14 C    0.950
    23   1 H    0.981 --    14 C    0.954
    24   1 H    0.974 --    14 C    0.937
    25   1 H    0.907 --     4 N    0.830
 ---------------------------------------------------------------------------

molecular dipole:
                 x           y           z       tot (Debye)
 q only:        1.288      -1.401       0.023
   full:        1.314      -1.208       0.032       4.537

           -------------------------------------------------
          | TOTAL ENERGY              -42.061311930208 Eh   |
          | GRADIENT NORM               0.002546823434 Eh/α |
          | HOMO-LUMO GAP               0.183604014982 eV   |
           -------------------------------------------------

 * finished run on 2024/06/05 at 19:59:06.244
