   * xtb version 6.6.1 (8d0f1dd) compiled by 'conda@1efc2f54142f' on 2023-08-01
          program call               : xtb xtbopt.xyz --opt crude --input .xc2 --gfn2

   ID    Z sym.   atoms
    1    6 C      1, 3, 5-7, 10, 11, 14
    2    7 N      2, 4, 9, 13
    3    8 O      8, 12
    4    1 H      15-25
########################################################################
[WARNING] Please study the warnings concerning your input carefully
-1- readin_getIntValue: could not parse ''
########################################################################

          :  Hamiltonian                  GFN2-xTB          :
 * total energy  :   -42.0614806 Eh     change       -0.1499245E-11 Eh
 * total energy  :   -42.0711478 Eh     change       -0.9667193E-02 Eh
 * total energy  :   -42.0803133 Eh     change       -0.9165466E-02 Eh
 * total energy  :   -42.0855300 Eh     change       -0.5216720E-02 Eh
 * total energy  :   -42.0897664 Eh     change       -0.4236378E-02 Eh
 * total energy  :   -42.0924323 Eh     change       -0.2665950E-02 Eh
 * total energy  :   -42.0935852 Eh     change       -0.1152902E-02 Eh
 * total energy  :   -42.0939584 Eh     change       -0.3731976E-03 Eh
 * total energy  :   -42.0942427 Eh     change       -0.2843122E-03 Eh
 * total energy  :   -42.0943791 Eh     change       -0.1363259E-03 Eh
   *** GEOMETRY OPTIMIZATION CONVERGED AFTER 10 ITERATIONS ***

 final structure:
================
25
 xtb: 6.6.1 (8d0f1dd)
C            3.15958288806979        1.40950738714060        0.01114370816948
N            2.34065443904553        0.27791411746309       -0.02851600246025
C            2.57326035295889       -2.29075779925321       -0.01707277309344
N            1.29447254662435       -2.23244761375017       -0.00201347443546
C            0.46299356725161       -1.11256168801956       -0.00744268092983
C            1.05510091043583        0.16923176173290       -0.00737157691151
C            0.13261969180692        1.35675302734775       -0.00030826738873
O            0.54757350616646        2.49077517888050       -0.00203524195069
N           -1.20364387375569        1.05456138884297        0.00228340395442
C           -2.15945101717294        2.15723472419811        0.00719077614513
C           -1.77197961507777       -0.20497810171237        0.00310088593437
O           -2.95987945402006       -0.37322051221487        0.00893479144070
N           -0.88156192097287       -1.29056736885712       -0.00280356177322
C           -1.47561312208968       -2.61495793525148       -0.00736291862332
H            3.62567857487928        1.48002088089468        0.99993621181664
H            3.95931986655278        1.29060664471179       -0.72373127403710
H            2.60309466169827        2.33600233407401       -0.18126029314512
H            3.21400076957770       -1.41363819648440       -0.04173412586098
H           -1.60842723029024        3.09401633133527        0.02019697608893
H           -2.78752819485284        2.09991636152618       -0.88156763701746
H           -2.79927711351116        2.08132958290758        0.88598774620385
H           -1.21676939404787       -3.16500150962605        0.89931300903983
H           -1.18321733869902       -3.17237888562364       -0.89864567671855
H           -2.55829833313416       -2.48180481015811       -0.02655621558462
H            0.79772634665700       -3.12731675850445        0.02150582903687

          :  Hamiltonian                  GFN2-xTB          :
         :: total energy             -42.094379068469 Eh    ::
         :: gradient norm              0.003932120973 Eh/a0 ::
         :: HOMO-LUMO gap              0.137134623918 eV    ::
         :: SCC energy               -42.609743662250 Eh    ::
         :: -> dispersion             -0.022351935080 Eh    ::
         :: repulsion energy           0.515234134428 Eh    ::

    * Orbital Energies and Occupations

         #    Occupation            Energy/Eh            Energy/eV
      -------------------------------------------------------------
         1        2.0000           -0.8949935             -24.3540
       ...           ...                  ...                  ...
        25        1.9999           -0.6780194             -18.4498
        26        1.9999           -0.6765439             -18.4097
        27        1.9995           -0.6464469             -17.5907
        28        1.9993           -0.6421233             -17.4731
        29        1.9991           -0.6390503             -17.3894
        30        1.9987           -0.6325966             -17.2138
        31        1.9969           -0.6188141             -16.8388
        32        1.9943           -0.6090550             -16.5732
        33        1.9920           -0.6036659             -16.4266
        34        1.9854           -0.5941935             -16.1688
        35        1.9664           -0.5808097             -15.8046
        36        1.8639           -0.5578298             -15.1793
        37        1.1584           -0.5214457             -14.1893 (HOMO)
        38        1.0006           -0.5164061             -14.0521 (LUMO)
        39        0.0439           -0.4562532             -12.4153
        40        0.0017           -0.4042004             -10.9989
        41        0.0005           -0.3855415             -10.4911
        42        0.0000           -0.3003031              -8.1717
        43                         -0.2084671              -5.6727
        44                         -0.1696265              -4.6158
        45                         -0.1480730              -4.0293
        46                         -0.1005317              -2.7356
        47                         -0.0798638              -2.1732
        48                         -0.0441677              -1.2019
       ...                                ...                  ...
        67                          0.5421882              14.7537
      -------------------------------------------------------------
                  HL-Gap            0.0050396 Eh            0.1371 eV

     #   Z          covCN         q      C6AA      α(0)
     1   6 C        3.690    -0.054    21.744     6.673
     2   7 N        1.838    -0.120    24.386     7.318
     3   6 C        1.849    -0.067    32.980     9.277
     4   7 N        2.688     0.014    21.012     6.808
     5   6 C        2.854     0.086    26.074     8.369
     6   6 C        2.890     0.049    26.896     8.503
     7   6 C        2.767     0.270    22.437     7.757
     8   8 O        0.858    -0.325    20.239     6.032
     9   7 N        2.738    -0.068    22.553     7.053
    10   6 C        3.710    -0.063    21.845     6.679
    11   6 C        2.725     0.318    21.596     7.608
    12   8 O        0.860    -0.345    20.615     6.087
    13   7 N        2.740    -0.042    22.048     6.974
    14   6 C        3.700    -0.080    22.192     6.737
    15   1 H        0.924     0.120     1.610     1.984
    16   1 H        0.924     0.116     1.649     2.008
    17   1 H        0.924     0.134     1.503     1.917
    18   1 H        0.925     0.158     1.340     1.810
    19   1 H        0.925     0.115     1.654     2.011
    20   1 H        0.925     0.106     1.727     2.055
    21   1 H        0.925     0.107     1.725     2.054
    22   1 H        0.924     0.092     1.857     2.131
    23   1 H        0.924     0.092     1.860     2.133
    24   1 H        0.924     0.137     1.483     1.904
    25   1 H        0.859     0.248     0.889     1.477

Wiberg/Mayer (AO) data.
largest (>0.10) Wiberg bond orders for each atom

     #   Z sym  total        # sym  WBO       # sym  WBO       # sym  WBO
 ---------------------------------------------------------------------------
     1   6 C    3.878 --     2 N    1.092    16 H    0.928    15 H    0.910
                            17 H    0.889
     2   7 N    2.905 --     6 C    1.538     1 C    1.092     3 C    0.112
     3   6 C    2.743 --     4 N    1.623    18 H    0.858     2 N    0.112
     4   7 N    3.670 --     3 C    1.623     5 C    1.085    25 H    0.874
     5   6 C    3.694 --     6 C    1.220    13 N    1.216     4 N    1.085
     6   6 C    3.917 --     2 N    1.538     5 C    1.220     7 C    0.938
     7   6 C    3.899 --     8 O    1.702     9 N    1.160     6 C    0.938
     8   8 O    2.039 --     7 C    1.702     9 N    0.140
     9   7 N    3.551 --     7 C    1.160    11 C    1.104    10 C    0.961
                             8 O    0.140    12 O    0.121
    10   6 C    3.892 --    19 H    0.967     9 N    0.961    21 H    0.959
                            20 H    0.959
    11   6 C    3.940 --    12 O    1.700     9 N    1.104    13 N    1.050
    12   8 O    2.014 --    11 C    1.700     9 N    0.121    13 N    0.110
    13   7 N    3.481 --     5 C    1.216    11 C    1.050    14 C    0.978
                            12 O    0.110
    14   6 C    3.914 --    13 N    0.978    23 H    0.961    22 H    0.961
                            24 H    0.956
    15   1 H    0.947 --     1 C    0.910
    16   1 H    0.956 --     1 C    0.928
    17   1 H    0.930 --     1 C    0.889
    18   1 H    0.937 --     3 C    0.858
    19   1 H    0.984 --    10 C    0.967
    20   1 H    0.979 --    10 C    0.959
    21   1 H    0.979 --    10 C    0.959
    22   1 H    0.981 --    14 C    0.961
    23   1 H    0.982 --    14 C    0.961
    24   1 H    0.980 --    14 C    0.956
    25   1 H    0.917 --     4 N    0.874
 ---------------------------------------------------------------------------

molecular dipole:
                 x           y           z       tot (Debye)
 q only:        1.453      -1.663       0.024
   full:        1.305      -1.548       0.040       5.148

           -------------------------------------------------
          | TOTAL ENERGY              -42.094379068469 Eh   |
          | GRADIENT NORM               0.003932120973 Eh/α |
          | HOMO-LUMO GAP               0.137134623918 eV   |
           -------------------------------------------------

 * finished run on 2024/06/05 at 19:59:06.661
