   * xtb version 6.6.1 (8d0f1dd) compiled by 'conda@1efc2f54142f' on 2023-08-01
          program call               : xtb xtbopt.xyz --opt crude --input .xc2 --gfn2

   ID    Z sym.   atoms
    1    7 N      1, 17
    2    6 C      2-6, 8, 9, 11-16, 18-23, 25, 26, 28-33
    3    8 O      7, 10, 24, 27
    4    1 H      34-72

          :  Hamiltonian                  GFN2-xTB          :
 * total energy  :   -99.3701323 Eh     change       -0.6096457E-11 Eh
   *** GEOMETRY OPTIMIZATION CONVERGED AFTER 1 ITERATIONS ***

 final structure:
================
72
 xtb: 6.6.1 (8d0f1dd)
N           -1.62764167657268        2.89934872035651        2.24713841288855
C           -2.18937418279086        2.94579488302172        1.23145867986157
C           -2.86795019165372        2.98583274013767        0.04315395065146
C           -3.24519046566993       -0.46500647931012        1.30809948548905
C           -4.20431765660283       -0.49223884377985        0.30509391933920
C           -4.89437646499982       -1.66227357516894        0.02044323424737
O           -5.85442364508316       -1.79742967977838       -0.91313360327745
C           -6.25670684447961       -0.67247396384005       -1.65744787778732
C           -4.59994196717132       -2.84292605266835        0.76209421206103
O           -5.32182125589447       -3.92337622699489        0.41839540729161
C           -5.15869365939680       -5.12432082039014        1.13751309305420
C           -3.62835623367031       -2.79532083840742        1.75416600010547
C           -2.95857911624039       -1.61137591025974        2.02516209216131
C           -2.14306242211985        2.78129477351332       -1.24720042069755
C           -1.39669642391764        1.43969461481801       -1.35980630911322
C           -0.14627161522822        1.38596548990238       -0.47994125953714
N            0.68636192213444        0.24338656608223       -0.77081822066855
C            2.06063272040665        0.32423215958997       -0.33881628722423
C            3.01419358326000       -0.12255497047334       -1.46698254972186
C            4.44154609806802       -0.00183127723797       -1.02638435376350
C            5.15794195117851        1.16806736303962       -1.25002332488175
C            6.46843704625989        1.29535444306350       -0.82180615531090
C            7.09729666592997        0.25291464510632       -0.15081587943234
O            8.35762498566133        0.26109514218055        0.30858160819696
C            9.15982457582076        1.40445533292996        0.11848497487972
C            6.37077777386377       -0.95124673856494        0.08799399034629
O            7.05408668160861       -1.90815290238108        0.73777100652697
C            6.43282393202229       -3.14144230330479        1.01415576916737
C            5.05831666695050       -1.05166696753080       -0.35156903183446
C            0.06197062764119       -1.04223048656995       -0.59328494317535
C           -4.30598050349444        3.39343842330185        0.03850216775690
C           -5.02335153498264        3.05204352413182        1.34433951638933
C           -4.38433339615894        4.91132626860274       -0.22056071240772
H           -4.42199514182120        0.40805801834779       -0.24699512026401
H           -6.62385890252003        0.12822673014915       -1.00741037958989
H           -7.06788134721145       -1.01839863861253       -2.29535100255991
H           -5.44123096055847       -0.29422097758776       -2.28279036237832
H           -5.37721053535113       -4.98599682352928        2.20031164725447
H           -5.87663973220308       -5.82097912907663        0.70821723392696
H           -4.14780004580663       -5.52719383276323        1.02072288228696
H           -3.39532652797667       -3.67749925000345        2.32753341069405
H           -2.21867080042618       -1.58818236616921        2.80987687769832
H           -2.86442861337584        2.84778488338992       -2.06436061222310
H           -1.41285274056583        3.58786792652260       -1.38389278641880
H           -2.07717225119699        0.62807664128848       -1.09926000105910
H           -1.08875639735602        1.30958419388020       -2.39944960456720
H           -0.44040870804109        1.38817988401629        0.58041636529412
H            0.44728670195637        2.28528073565099       -0.66339806733952
H            2.23523760785631       -0.30036468594422        0.54723933949283
H            2.29958710256082        1.35492197660865       -0.07165617933774
H            2.83436260037221        0.50939038834719       -2.33685839204370
H            2.79036210949897       -1.15396716483335       -1.74072505055603
H            4.69291059149189        1.98944370801056       -1.77299031636552
H            6.99922751696217        2.21268582553345       -1.01755985829000
H            8.73015609218738        2.28062706644344        0.61297076363608
H            9.30500742653703        1.61847112953724       -0.94442677528011
H           10.11935958917708        1.16663917073375        0.57373740186772
H            7.18157905292243       -3.73520032218675        1.53499149458727
H            5.55858145466675       -3.01343681272880        1.65978174414450
H            6.13776410905415       -3.65574266056216        0.09450596951482
H            4.50257776687557       -1.96025662507467       -0.18047918047542
H           -0.72272260008797       -1.18308556776253       -1.33559414805931
H           -0.38657970247293       -1.14687595537507        0.40451556257566
H            0.80076576299039       -1.82808579382415       -0.72785177278901
H           -4.80776876463357        2.89035967154760       -0.79928030953173
H           -4.56786306234511        3.57989128797341        2.17967333677823
H           -4.97812486361676        1.98456479170030        1.55347130346936
H           -6.06787872599910        3.34706114018126        1.27998232500021
H           -3.89576716717660        5.45316158957860        0.58624124609527
H           -3.90309865027155        5.17277489548202       -1.16042195205625
H           -5.42601145322187        5.21738377737980       -0.26532168665315
H           -2.73296816858273        0.45481364312860        1.53919290454479

          :  Hamiltonian                  GFN2-xTB          :
         :: total energy             -99.370132252192 Eh    ::
         :: gradient norm              0.003008051618 Eh/a0 ::
         :: HOMO-LUMO gap              0.709543692342 eV    ::
         :: SCC energy              -100.785409641557 Eh    ::
         :: -> dispersion             -0.068840685504 Eh    ::
         :: repulsion energy           1.414237969182 Eh    ::

    * Orbital Energies and Occupations

         #    Occupation            Energy/Eh            Energy/eV
      -------------------------------------------------------------
         1        2.0000           -0.8175387             -22.2464
       ...           ...                  ...                  ...
        78        1.9965           -0.5345940             -14.5470
        79        1.9959           -0.5322292             -14.4827
        80        1.9957           -0.5314003             -14.4601
        81        1.9954           -0.5302521             -14.4289
        82        1.9938           -0.5254688             -14.2987
        83        1.9934           -0.5244229             -14.2703
        84        1.9926           -0.5226839             -14.2230
        85        1.9716           -0.5012093             -13.6386
        86        1.9621           -0.4965815             -13.5127
        87        1.9576           -0.4947463             -13.4627
        88        1.7790           -0.4670990             -12.7104
        89        1.7484           -0.4647726             -12.6471
        90        1.6621           -0.4592994             -12.4982 (HOMO)
        91        0.9731           -0.4332241             -11.7886 (LUMO)
        92        0.0014           -0.3195653              -8.6958
        93        0.0013           -0.3184559              -8.6656
        94        0.0012           -0.3165887              -8.6148
        95        0.0012           -0.3164381              -8.6107
        96        0.0003           -0.2930906              -7.9754
        97        0.0000           -0.2395067              -6.5173
        98        0.0000           -0.1942671              -5.2863
        99        0.0000           -0.1915777              -5.2131
       100                         -0.1070020              -2.9117
       101                         -0.0695737              -1.8932
       ...                                ...                  ...
       171                          1.0677418              29.0547
      -------------------------------------------------------------
                  HL-Gap            0.0260753 Eh            0.7095 eV

     #   Z          covCN         q      C6AA      α(0)
     1   7 N        0.911    -0.247    26.428     7.435
     2   6 C        1.902     0.106    28.480     8.619
     3   6 C        2.947     0.005    27.908     8.664
     4   6 C        2.917    -0.038    28.949     8.823
     5   6 C        2.915    -0.070    29.734     8.942
     6   6 C        2.864     0.135    25.042     8.203
     7   8 O        1.706    -0.219    17.632     5.669
     8   6 C        3.645     0.027    20.461     6.501
     9   6 C        2.864     0.137    24.998     8.195
    10   8 O        1.706    -0.215    17.576     5.660
    11   6 C        3.645     0.023    20.520     6.511
    12   6 C        2.914    -0.064    29.595     8.921
    13   6 C        2.918    -0.034    28.849     8.808
    14   6 C        3.806    -0.055    21.564     6.611
    15   6 C        3.801    -0.064    21.735     6.638
    16   6 C        3.749    -0.007    20.760     6.498
    17   7 N        2.728    -0.095    23.094     7.137
    18   6 C        3.751    -0.002    20.681     6.485
    19   6 C        3.809    -0.073    21.884     6.659
    20   6 C        2.967     0.013    27.714     8.635
    21   6 C        2.922    -0.041    29.026     8.835
    22   6 C        2.912    -0.063    29.577     8.918
    23   6 C        2.864     0.138    24.992     8.194
    24   8 O        1.706    -0.208    17.467     5.643
    25   6 C        3.645     0.021    20.551     6.515
    26   6 C        2.862     0.138    24.992     8.194
    27   8 O        1.706    -0.212    17.526     5.652
    28   6 C        3.645     0.024    20.516     6.510
    29   6 C        2.919    -0.075    29.862     8.961
    30   6 C        3.701    -0.053    21.681     6.659
    31   6 C        3.856     0.001    20.524     6.443
    32   6 C        3.755    -0.111    22.676     6.790
    33   6 C        3.758    -0.105    22.554     6.771
    34   1 H        0.926     0.050     2.317     2.380
    35   1 H        0.924     0.056     2.249     2.345
    36   1 H        0.925     0.084     1.934     2.175
    37   1 H        0.924     0.051     2.308     2.376
    38   1 H        0.924     0.061     2.192     2.315
    39   1 H        0.925     0.085     1.926     2.170
    40   1 H        0.924     0.058     2.227     2.334
    41   1 H        0.926     0.060     2.197     2.318
    42   1 H        0.926     0.055     2.253     2.347
    43   1 H        0.924     0.055     2.264     2.353
    44   1 H        0.924     0.066     2.126     2.280
    45   1 H        0.924     0.049     2.332     2.388
    46   1 H        0.924     0.058     2.228     2.334
    47   1 H        0.923     0.052     2.293     2.368
    48   1 H        0.924     0.056     2.252     2.347
    49   1 H        0.923     0.048     2.351     2.398
    50   1 H        0.924     0.055     2.253     2.347
    51   1 H        0.925     0.064     2.155     2.296
    52   1 H        0.924     0.057     2.229     2.335
    53   1 H        0.926     0.058     2.227     2.334
    54   1 H        0.926     0.065     2.145     2.290
    55   1 H        0.924     0.061     2.185     2.312
    56   1 H        0.924     0.062     2.176     2.307
    57   1 H        0.925     0.087     1.907     2.159
    58   1 H        0.925     0.086     1.916     2.165
    59   1 H        0.924     0.056     2.245     2.343
    60   1 H        0.924     0.058     2.218     2.329
    61   1 H        0.926     0.056     2.252     2.347
    62   1 H        0.925     0.060     2.202     2.321
    63   1 H        0.923     0.047     2.356     2.400
    64   1 H        0.925     0.062     2.175     2.306
    65   1 H        0.923     0.042     2.426     2.436
    66   1 H        0.925     0.055     2.254     2.348
    67   1 H        0.925     0.042     2.416     2.431
    68   1 H        0.925     0.051     2.302     2.373
    69   1 H        0.925     0.054     2.273     2.358
    70   1 H        0.925     0.046     2.375     2.410
    71   1 H        0.925     0.060     2.196     2.317
    72   1 H        0.926     0.054     2.267     2.355

Wiberg/Mayer (AO) data.
largest (>0.10) Wiberg bond orders for each atom

     #   Z sym  total        # sym  WBO       # sym  WBO       # sym  WBO
 ---------------------------------------------------------------------------
     1   7 N    2.710 --     2 C    2.590
     2   6 C    3.930 --     1 N    2.590     3 C    1.279
     3   6 C    3.423 --     2 C    1.279    14 C    1.025    31 C    1.015
     4   6 C    3.925 --    13 C    1.421     5 C    1.412    72 H    0.962
     5   6 C    3.950 --     4 C    1.412     6 C    1.380    34 H    0.959
     6   6 C    3.873 --     5 C    1.380     9 C    1.209     7 O    1.111
     7   8 O    2.245 --     6 C    1.111     8 C    0.977
     8   6 C    3.928 --     7 O    0.977    36 H    0.976    37 H    0.972
                            35 H    0.972
     9   6 C    3.874 --    12 C    1.376     6 C    1.209    10 O    1.118
    10   8 O    2.248 --     9 C    1.118    11 C    0.975
    11   6 C    3.923 --    39 H    0.976    10 O    0.975    38 H    0.971
                            40 H    0.970
    12   6 C    3.946 --    13 C    1.418     9 C    1.376    41 H    0.963
    13   6 C    3.930 --     4 C    1.421    12 C    1.418    42 H    0.968
    14   6 C    3.981 --     3 C    1.025    15 C    0.979    43 H    0.970
                            44 H    0.937
    15   6 C    3.958 --    16 C    0.999    14 C    0.979    46 H    0.971
                            45 H    0.971
    16   6 C    3.961 --    17 N    1.005    15 C    0.999    48 H    0.966
                            47 H    0.940
    17   7 N    3.090 --    30 C    1.019    18 C    1.009    16 C    1.005
    18   6 C    3.958 --    17 N    1.009    50 H    0.970    19 C    0.963
                            49 H    0.958
    19   6 C    3.968 --    20 C    1.017    51 H    0.969    52 H    0.967
                            18 C    0.963
    20   6 C    3.915 --    29 C    1.386    21 C    1.381    19 C    1.017
    21   6 C    3.917 --    22 C    1.430    20 C    1.381    53 H    0.966
    22   6 C    3.942 --    21 C    1.430    23 C    1.366    54 H    0.962
    23   6 C    3.861 --    22 C    1.366    26 C    1.201    24 O    1.125
    24   8 O    2.248 --    23 C    1.125    25 C    0.973
    25   6 C    3.920 --    57 H    0.976    24 O    0.973    55 H    0.970
                            56 H    0.970
    26   6 C    3.870 --    29 C    1.383    23 C    1.201    27 O    1.119
    27   8 O    2.249 --    26 C    1.119    28 C    0.975
    28   6 C    3.925 --    58 H    0.976    27 O    0.975    59 H    0.971
                            60 H    0.971
    29   6 C    3.944 --    20 C    1.386    26 C    1.383    61 H    0.961
    30   6 C    3.965 --    17 N    1.019    64 H    0.978    62 H    0.972
                            63 H    0.959
    31   6 C    3.977 --     3 C    1.015    32 C    1.001    33 C    0.953
                            65 H    0.949
    32   6 C    3.979 --    31 C    1.001    68 H    0.982    67 H    0.981
                            66 H    0.981
    33   6 C    3.938 --    70 H    0.985    69 H    0.985    71 H    0.976
                            31 C    0.953
    34   1 H    0.996 --     5 C    0.959
    35   1 H    0.990 --     8 C    0.972
    36   1 H    0.992 --     8 C    0.976
    37   1 H    0.990 --     8 C    0.972
    38   1 H    0.988 --    11 C    0.971
    39   1 H    0.992 --    11 C    0.976
    40   1 H    0.988 --    11 C    0.970
    41   1 H    0.994 --    12 C    0.963
    42   1 H    0.995 --    13 C    0.968
    43   1 H    0.995 --    14 C    0.970
    44   1 H    0.964 --    14 C    0.937
    45   1 H    0.996 --    15 C    0.971
    46   1 H    0.992 --    15 C    0.971
    47   1 H    0.965 --    16 C    0.940
    48   1 H    0.994 --    16 C    0.966
    49   1 H    0.977 --    18 C    0.958
    50   1 H    0.995 --    18 C    0.970
    51   1 H    0.993 --    19 C    0.969
    52   1 H    0.994 --    19 C    0.967
    53   1 H    0.995 --    21 C    0.966
    54   1 H    0.993 --    22 C    0.962
    55   1 H    0.987 --    25 C    0.970
    56   1 H    0.987 --    25 C    0.970
    57   1 H    0.991 --    25 C    0.976
    58   1 H    0.992 --    28 C    0.976
    59   1 H    0.989 --    28 C    0.971
    60   1 H    0.989 --    28 C    0.971
    61   1 H    0.995 --    29 C    0.961
    62   1 H    0.987 --    30 C    0.972
    63   1 H    0.971 --    30 C    0.959
    64   1 H    0.995 --    30 C    0.978
    65   1 H    0.984 --    31 C    0.949
    66   1 H    0.995 --    32 C    0.981
    67   1 H    0.996 --    32 C    0.981
    68   1 H    0.995 --    32 C    0.982
    69   1 H    0.995 --    33 C    0.985
    70   1 H    0.996 --    33 C    0.985
    71   1 H    0.989 --    33 C    0.976
    72   1 H    0.996 --     4 C    0.962
 ---------------------------------------------------------------------------

molecular dipole:
                 x           y           z       tot (Debye)
 q only:        0.773      -0.577      -1.015
   full:        0.516      -0.429      -1.187       3.466

           -------------------------------------------------
          | TOTAL ENERGY              -99.370132252192 Eh   |
          | GRADIENT NORM               0.003008051618 Eh/α |
          | HOMO-LUMO GAP               0.709543692342 eV   |
           -------------------------------------------------

 * finished run on 2024/04/06 at 11:12:00.564
