   * xtb version 6.6.1 (8d0f1dd) compiled by 'conda@1efc2f54142f' on 2023-08-01
          program call               : xtb struc.xyz --opt loose --input .xc1 --gfn2

   ID    Z sym.   atoms
    1    7 N      1, 17
    2    6 C      2-6, 8, 9, 11-16, 18-23, 25, 26, 28-33
    3    8 O      7, 10, 24, 27
    4    1 H      34-72
constraining bond 12 39 to    4.7133300 Å, actual value:    3.9012444 Å

          :  Hamiltonian                  GFN2-xTB          :
 * total energy  :   -99.5218837 Eh     change       -0.4035485E-08 Eh
 * total energy  :   -99.6671083 Eh     change       -0.1452245E+00 Eh
 * total energy  :   -99.8127943 Eh     change       -0.1456860E+00 Eh
 * total energy  :   -99.9840520 Eh     change       -0.1712578E+00 Eh
 * total energy  :  -100.3753213 Eh     change       -0.3912693E+00 Eh
 * total energy  :  -100.7919023 Eh     change       -0.4165811E+00 Eh
 * total energy  :  -101.3731849 Eh     change       -0.5812826E+00 Eh
 * total energy  :  -100.6373413 Eh     change        0.7358436E+00 Eh
 * total energy  :  -101.5156044 Eh     change       -0.8782631E+00 Eh
 * total energy  :  -101.4486938 Eh     change        0.6691064E-01 Eh
 * total energy  :  -101.9868407 Eh     change       -0.6837912E-04 Eh
 * total energy  :  -101.9869005 Eh     change       -0.5973561E-04 Eh
 * total energy  :  -101.9869683 Eh     change       -0.6782094E-04 Eh
 * total energy  :  -101.9870207 Eh     change       -0.5240697E-04 Eh
 * total energy  :  -101.9870808 Eh     change       -0.6015303E-04 Eh
 * total energy  :  -101.9871325 Eh     change       -0.5171083E-04 Eh
 * total energy  :  -101.9871832 Eh     change       -0.5065400E-04 Eh
 * total energy  :  -101.9872348 Eh     change       -0.5158860E-04 Eh
 * total energy  :  -101.9872702 Eh     change       -0.3545670E-04 Eh
   *** GEOMETRY OPTIMIZATION CONVERGED AFTER 87 ITERATIONS ***

 final structure:
================
72
 xtb: 6.6.1 (8d0f1dd)
N           -1.50897225392105        3.05617620471034        1.79278493426141
C           -1.86792400334605        1.98911433149047        1.24703212354691
C           -3.07561283204027        1.86604740079258        0.35710487897139
C           -3.84154145695076        0.61037072689681        0.76061670225403
C           -4.78416021690054        0.05380322433440       -0.20190167925040
C           -4.95605565258025       -1.26762138594116       -0.43448165768382
O           -5.96374525854240       -1.81010985854351       -1.16064532909053
C           -7.01992603310063       -0.98121237987611       -1.58975201141124
C           -3.99161336443170       -2.30610828726324        0.02663494211862
O           -2.79483567143648       -2.04314301665431        0.15874128154132
C           -3.74788816413323       -4.63471900309163        0.59293386734596
C           -4.58357615812534       -3.63818782331133        0.24785651642699
C           -3.76464175543133        0.10787736534242        1.99466330707491
C           -2.54839991609114        1.70881836376196       -1.09231429167249
C           -1.68649569231401        0.46109501032060       -1.30111105584764
C           -0.30332724647027        0.62834064590918       -0.82146175179839
N            0.53273671715804       -0.36521340090635       -0.62574529191644
C            1.89611237256147       -0.12597257877063       -0.21391521228278
C            2.88326941472355       -0.28221151253040       -1.38563978707367
C            4.29063233665260       -0.05452798365140       -0.90816303031485
C            4.90286211714928        1.17940037965851       -1.05473112951208
C            6.19629149830007        1.38854020803590       -0.60121256863042
C            6.90181884282151        0.36660639124799        0.01816799472931
O            8.15744636535507        0.45282714639822        0.49135373043296
C            8.86690271343403        1.66210457832934        0.34839919229924
C            6.27717982359578       -0.90199043808167        0.18325226565444
O            7.03061389677123       -1.83505082556586        0.79585182263063
C            6.50836459306994       -3.12806749907418        0.98857589811507
C            4.98506771844564       -1.08754109218009       -0.28178825265000
C            0.16202829379693       -1.72968600506305       -0.90986042499557
C           -4.04260446506383        3.08546326501619        0.44114001045624
C           -4.56063333930746        3.29710447466169        1.86205420217128
C           -3.42901494367972        4.38802186281537       -0.06979588764786
H           -5.43135384431596        0.76587092443876       -0.69388697867263
H           -7.44810501833658       -0.41826307651376       -0.75489281297511
H           -7.77129440750919       -1.65049647644022       -2.00306717195958
H           -6.68957376391054       -0.28628442928416       -2.36865485218474
H           -4.11820318171724       -5.62888537325370        0.78009845831611
H           -5.31715569863296       -3.71882494652848        0.16644309295572
H           -2.68528822676960       -4.47767849588248        0.69851777560015
H           -4.36126558449190       -0.73796482190357        2.28839588511929
H           -3.12993927687458        0.52987665135916        2.75332091935723
H           -3.40839559658457        1.65705495701588       -1.76038964574769
H           -1.97173252701109        2.59545972078295       -1.35682210429183
H           -2.15275880452874       -0.40139873625332       -0.80700614404251
H           -1.66146535210373        0.21838609589560       -2.37051556357442
H           -1.31382476749690        1.03925558661567        1.34041871476469
H            0.07341820893846        1.62559518977282       -0.64385647330216
H            2.15627996184188       -0.83597883549241        0.57592612694767
H            1.98242744142059        0.88395442899470        0.19187860864426
H            2.63087035696063        0.44270118388602       -2.16085772811055
H            2.79342601790395       -1.28430849091149       -1.80706953709517
H            4.37831024445917        1.98904730332192       -1.53872614696049
H            6.65002586402894        2.35604199705334       -0.73983607209479
H            8.37383158269703        2.48116596080393        0.88057593581717
H            8.98997232335272        1.93139138549460       -0.70487787946417
H            9.84438535662524        1.48082372260854        0.79127034553131
H            7.29651759915782       -3.69035011512199        1.48543765936526
H            5.61971749243541       -3.11071562424462        1.62768840510233
H            6.26649754505249       -3.60938220250532        0.03592540566785
H            4.50826683378875       -2.04936843523778       -0.17420358178130
H            0.04018416785005       -1.87960865325461       -1.98479976920200
H           -0.78309082854964       -1.98142061052685       -0.42504673980179
H            0.93469761325472       -2.40107304124330       -0.54507168044877
H           -4.90000514358537        2.84717853804430       -0.19944350933294
H           -3.74708089600904        3.60353430482341        2.51278715684955
H           -5.00976515727522        2.39064097482739        2.26081491687651
H           -5.31465354997673        4.07976777528661        1.86304689218322
H           -2.50944439361009        4.60275040672483        0.46513268001417
H           -3.23081736511788        4.35558115721477       -1.13814563148245
H           -4.12683866364535        5.20168897428249        0.11034483640365
H           -0.67061924468138        3.03802615862095        2.36576674138765

          :  Hamiltonian                  GFN2-xTB          :
         :: total energy            -101.987270251394 Eh    ::
         :: gradient norm              0.003701212470 Eh/a0 ::
         :: HOMO-LUMO gap              1.779031680472 eV    ::
         :: SCC energy              -100.758249031083 Eh    ::
         :: -> dispersion             -0.074636696228 Eh    ::
         :: repulsion energy           1.585270727950 Eh    ::

    * Orbital Energies and Occupations

         #    Occupation            Energy/Eh            Energy/eV
      -------------------------------------------------------------
         1        2.0000           -0.8136087             -22.1394
       ...           ...                  ...                  ...
        78        1.9978           -0.5296500             -14.4125
        79        1.9977           -0.5285441             -14.3824
        80        1.9967           -0.5229115             -14.2291
        81        1.9965           -0.5220984             -14.2070
        82        1.9937           -0.5126472             -13.9498
        83        1.9935           -0.5121272             -13.9357
        84        1.9927           -0.5103475             -13.8873
        85        1.9883           -0.5028132             -13.6822
        86        1.9753           -0.4908310             -13.3562
        87        1.9644           -0.4849438             -13.1960
        88        1.9140           -0.4705786             -12.8051
        89        1.8862           -0.4659221             -12.6784
        90        1.8242           -0.4585036             -12.4765 (HOMO)
        91        0.2863           -0.3931253             -10.6975 (LUMO)
        92        0.1866           -0.3854498             -10.4886
        93        0.0098           -0.3373132              -9.1788
        94        0.0039           -0.3226281              -8.7792
        95        0.0024           -0.3152062              -8.5772
        96        0.0020           -0.3124217              -8.5014
        97        0.0003           -0.2798588              -7.6153
        98        0.0000           -0.2320122              -6.3134
        99        0.0000           -0.1901438              -5.1741
       100                         -0.1322095              -3.5976
       101                         -0.0702506              -1.9116
       ...                                ...                  ...
       171                          1.5257537              41.5179
      -------------------------------------------------------------
                  HL-Gap            0.0653782 Eh            1.7790 eV

     #   Z          covCN         q      C6AA      α(0)
     1   7 N        1.774    -0.273    27.912     7.823
     2   6 C        2.827     0.103    25.720     8.310
     3   6 C        3.908     0.007    20.408     6.421
     4   6 C        2.954     0.023    27.482     8.598
     5   6 C        2.903    -0.069    29.729     8.940
     6   6 C        2.842     0.113    25.507     8.277
     7   8 O        1.705    -0.247    18.093     5.743
     8   6 C        3.644     0.028    20.446     6.500
     9   6 C        2.831     0.212    23.520     7.947
    10   8 O        0.857    -0.424    22.166     6.312
    11   6 C        2.847    -0.058    29.424     8.890
    12   6 C        2.894    -0.077    29.912     8.967
    13   6 C        2.849    -0.087    30.179     9.004
    14   6 C        3.813    -0.066    21.746     6.637
    15   6 C        3.803    -0.084    22.101     6.693
    16   6 C        2.849     0.021    27.526     8.599
    17   7 N        2.730     0.038    20.581     6.738
    18   6 C        3.757    -0.020    20.991     6.532
    19   6 C        3.808    -0.071    21.852     6.654
    20   6 C        2.969     0.001    28.003     8.680
    21   6 C        2.921    -0.047    29.176     8.858
    22   6 C        2.914    -0.067    29.660     8.931
    23   6 C        2.865     0.135    25.058     8.205
    24   8 O        1.706    -0.219    17.632     5.669
    25   6 C        3.645     0.024    20.506     6.508
    26   6 C        2.863     0.134    25.067     8.207
    27   8 O        1.706    -0.222    17.683     5.678
    28   6 C        3.645     0.026    20.469     6.503
    29   6 C        2.919    -0.080    29.992     8.981
    30   6 C        3.704    -0.089    22.363     6.761
    31   6 C        3.852    -0.006    20.648     6.463
    32   6 C        3.756    -0.117    22.787     6.806
    33   6 C        3.755    -0.121    22.879     6.820
    34   1 H        0.926     0.057     2.240     2.340
    35   1 H        0.924     0.053     2.277     2.360
    36   1 H        0.925     0.080     1.983     2.202
    37   1 H        0.924     0.051     2.305     2.374
    38   1 H        0.926     0.066     2.129     2.282
    39   1 H        0.931     0.112     1.677     2.025
    40   1 H        0.926     0.069     2.100     2.266
    41   1 H        0.926     0.047     2.355     2.400
    42   1 H        0.926     0.050     2.321     2.382
    43   1 H        0.924     0.060     2.202     2.321
    44   1 H        0.924     0.056     2.240     2.341
    45   1 H        0.923     0.121     1.604     1.981
    46   1 H        0.924     0.083     1.950     2.184
    47   1 H        0.923     0.014     2.833     2.632
    48   1 H        0.926     0.075     2.031     2.229
    49   1 H        0.924     0.075     2.035     2.231
    50   1 H        0.924     0.068     2.107     2.270
    51   1 H        0.924     0.056     2.246     2.344
    52   1 H        0.924     0.060     2.199     2.319
    53   1 H        0.926     0.048     2.340     2.392
    54   1 H        0.926     0.060     2.194     2.316
    55   1 H        0.924     0.056     2.248     2.345
    56   1 H        0.924     0.057     2.230     2.335
    57   1 H        0.925     0.084     1.942     2.179
    58   1 H        0.925     0.083     1.947     2.182
    59   1 H        0.924     0.050     2.320     2.382
    60   1 H        0.924     0.054     2.274     2.358
    61   1 H        0.926     0.048     2.345     2.395
    62   1 H        0.924     0.080     1.976     2.198
    63   1 H        0.924     0.125     1.571     1.960
    64   1 H        0.925     0.081     1.964     2.191
    65   1 H        0.924     0.036     2.502     2.474
    66   1 H        0.925     0.061     2.186     2.312
    67   1 H        0.925     0.037     2.487     2.466
    68   1 H        0.925     0.051     2.304     2.374
    69   1 H        0.925     0.069     2.099     2.265
    70   1 H        0.925     0.036     2.504     2.474
    71   1 H        0.925     0.055     2.258     2.350
    72   1 H        0.860     0.154     1.374     1.836

Wiberg/Mayer (AO) data.
largest (>0.10) Wiberg bond orders for each atom

     #   Z sym  total        # sym  WBO       # sym  WBO       # sym  WBO
 ---------------------------------------------------------------------------
     1   7 N    3.015 --     2 C    1.948    72 H    0.942
     2   6 C    3.935 --     1 N    1.948     3 C    0.992    47 H    0.920
     3   6 C    3.971 --     2 C    0.992     4 C    0.963    14 C    0.954
                            31 C    0.943
     4   6 C    3.959 --    13 C    1.821     5 C    1.090     3 C    0.963
     5   6 C    3.887 --     6 C    1.621     4 C    1.090    34 H    0.942
                             7 O    0.104
     6   6 C    3.878 --     5 C    1.621     7 O    1.088     9 C    1.008
     7   8 O    2.241 --     6 C    1.088     8 C    0.975     5 C    0.104
     8   6 C    3.931 --    36 H    0.976     7 O    0.975    35 H    0.974
                            37 H    0.972
     9   6 C    3.840 --    10 O    1.654    12 C    1.075     6 C    1.008
    10   8 O    1.930 --     9 C    1.654
    11   6 C    3.884 --    12 C    1.832    40 H    0.976    38 H    0.974
    12   6 C    3.957 --    11 C    1.832     9 C    1.075    39 H    0.971
    13   6 C    3.917 --     4 C    1.821    41 H    0.973    42 H    0.969
    14   6 C    3.986 --    15 C    1.002    44 H    0.969    43 H    0.968
                             3 C    0.954
    15   6 C    3.976 --    16 C    1.075    14 C    1.002    46 H    0.920
                            45 H    0.903
    16   6 C    3.677 --    17 N    1.479    15 C    1.075    48 H    0.954
    17   7 N    3.552 --    16 C    1.479    30 C    0.995    18 C    0.987
    18   6 C    3.954 --    17 N    0.987    50 H    0.969    19 C    0.968
                            49 H    0.961
    19   6 C    3.979 --    20 C    1.008    51 H    0.973    52 H    0.969
                            18 C    0.968
    20   6 C    3.940 --    21 C    1.409    29 C    1.379    19 C    1.008
    21   6 C    3.946 --    22 C    1.416    20 C    1.409    53 H    0.968
    22   6 C    3.956 --    21 C    1.416    23 C    1.382    54 H    0.963
    23   6 C    3.891 --    22 C    1.382    26 C    1.215    24 O    1.114
    24   8 O    2.255 --    23 C    1.114    25 C    0.975
    25   6 C    3.926 --    57 H    0.976    24 O    0.975    55 H    0.972
                            56 H    0.972
    26   6 C    3.895 --    29 C    1.395    23 C    1.215    27 O    1.107
    27   8 O    2.255 --    26 C    1.107    28 C    0.978
    28   6 C    3.930 --    27 O    0.978    58 H    0.976    59 H    0.973
                            60 H    0.973
    29   6 C    3.957 --    26 C    1.395    20 C    1.379    61 H    0.962
    30   6 C    3.942 --    17 N    0.995    64 H    0.978    62 H    0.962
                            63 H    0.941
    31   6 C    3.975 --    32 C    1.009    33 C    1.006    65 H    0.959
                             3 C    0.943
    32   6 C    3.980 --    31 C    1.009    68 H    0.981    67 H    0.980
                            66 H    0.977
    33   6 C    3.976 --    31 C    1.006    70 H    0.982    71 H    0.979
                            69 H    0.972
    34   1 H    0.992 --     5 C    0.942
    35   1 H    0.994 --     8 C    0.974
    36   1 H    0.992 --     8 C    0.976
    37   1 H    0.993 --     8 C    0.972
    38   1 H    0.993 --    11 C    0.974
    39   1 H    0.987 --    12 C    0.971
    40   1 H    0.994 --    11 C    0.976
    41   1 H    0.996 --    13 C    0.973
    42   1 H    0.996 --    13 C    0.969
    43   1 H    0.995 --    14 C    0.968
    44   1 H    0.995 --    14 C    0.969
    45   1 H    0.976 --    15 C    0.903
    46   1 H    0.974 --    15 C    0.920
    47   1 H    0.981 --     2 C    0.920
    48   1 H    0.994 --    16 C    0.954
    49   1 H    0.990 --    18 C    0.961
    50   1 H    0.995 --    18 C    0.969
    51   1 H    0.996 --    19 C    0.973
    52   1 H    0.995 --    19 C    0.969
    53   1 H    0.997 --    21 C    0.968
    54   1 H    0.995 --    22 C    0.963
    55   1 H    0.991 --    25 C    0.972
    56   1 H    0.991 --    25 C    0.972
    57   1 H    0.992 --    25 C    0.976
    58   1 H    0.992 --    28 C    0.976
    59   1 H    0.992 --    28 C    0.973
    60   1 H    0.992 --    28 C    0.973
    61   1 H    0.996 --    29 C    0.962
    62   1 H    0.985 --    30 C    0.962
    63   1 H    0.979 --    30 C    0.941
    64   1 H    0.993 --    30 C    0.978
    65   1 H    0.991 --    31 C    0.959
    66   1 H    0.992 --    32 C    0.977
    67   1 H    0.996 --    32 C    0.980
    68   1 H    0.994 --    32 C    0.981
    69   1 H    0.990 --    33 C    0.972
    70   1 H    0.996 --    33 C    0.982
    71   1 H    0.993 --    33 C    0.979
    72   1 H    0.970 --     1 N    0.942
 ---------------------------------------------------------------------------

molecular dipole:
                 x           y           z       tot (Debye)
 q only:        0.688      -0.034      -0.971
   full:        0.539      -0.245      -1.028       3.014

           -------------------------------------------------
          | TOTAL ENERGY             -101.987270251394 Eh   |
          | GRADIENT NORM               0.003701212470 Eh/α |
          | HOMO-LUMO GAP               1.779031680472 eV   |
           -------------------------------------------------

 * finished run on 2024/04/06 at 11:16:31.712
