   * xtb version 6.6.1 (8d0f1dd) compiled by 'conda@1efc2f54142f' on 2023-08-01
          program call               : xtb xtbopt.xyz --opt crude --input .xc2 --gfn2

   ID    Z sym.   atoms
    1    7 N      1, 17
    2    6 C      2-6, 8, 9, 11-16, 18-23, 25, 26, 28-33
    3    8 O      7, 10, 24, 27
    4    1 H      34-72
########################################################################
[WARNING] Please study the warnings concerning your input carefully
-1- readin_getIntValue: could not parse ''
########################################################################

          :  Hamiltonian                  GFN2-xTB          :
 * total energy  :   -99.1718991 Eh     change       -0.1278977E-12 Eh
 * total energy  :   -99.3290629 Eh     change       -0.1571638E+00 Eh
 * total energy  :   -99.3309328 Eh     change       -0.1869881E-02 Eh
 * total energy  :   -99.3313946 Eh     change       -0.4618219E-03 Eh
 * total energy  :   -99.3315643 Eh     change       -0.1696670E-03 Eh
   *** GEOMETRY OPTIMIZATION CONVERGED AFTER 5 ITERATIONS ***

 final structure:
================
72
 xtb: 6.6.1 (8d0f1dd)
N           -1.50512470233597        3.05846702053890        1.79013622534555
C           -1.86808580923602        1.99053504273971        1.24864414774945
C           -3.07566447648262        1.86900226630037        0.35846775477311
C           -3.84111334164053        0.61206464186683        0.76048446526041
C           -4.78052502861284        0.05241248199857       -0.20258097665285
C           -4.94751624829828       -1.27094080644733       -0.43583473260942
O           -5.95042379205984       -1.81220091580840       -1.16504800082307
C           -7.01189565295764       -0.98756181342272       -1.59094331719171
C           -3.97429215757086       -2.29827599406590        0.02603479064913
O           -2.78017762840004       -2.01368264313050        0.16236653263057
C           -3.72868074654482       -4.65641379683413        0.60758870664896
C           -4.51392453772800       -3.63451835860035        0.25067485386959
C           -3.76131650254999        0.10752317941045        1.99408088014908
C           -2.54687744585733        1.71486303690503       -1.09097422554243
C           -1.68246993306864        0.46963488193882       -1.30308594265225
C           -0.30020668961521        0.63427526913436       -0.82071364830081
N            0.53416267968897       -0.36030373493723       -0.62534115252665
C            1.89843559238888       -0.12451238095127       -0.21465729484623
C            2.88446525550152       -0.28552185058333       -1.38698190985698
C            4.29195909464311       -0.05688219027283       -0.91058480333988
C            4.90270683529452        1.17782778991621       -1.05618651323942
C            6.19547208916302        1.38825420880413       -0.60134854863161
C            6.90199010509813        0.36702280482654        0.01803614093788
O            8.15696270742336        0.45503920885817        0.49254211035669
C            8.86531506493051        1.66495795049574        0.34934426104964
C            6.27898219887461       -0.90247540123419        0.18153750267329
O            7.03287364761862       -1.83526976753552        0.79409987890805
C            6.51133181334200       -3.12873925648488        0.98592409681139
C            4.98737312313354       -1.08931998787053       -0.28456069605512
C            0.15965114210502       -1.72519521039583       -0.90521371259067
C           -4.04222644814021        3.08840670998626        0.44269557764645
C           -4.55776288476179        3.30195734406523        1.86371315754505
C           -3.42993749816051        4.39004137176590       -0.07149502882213
H           -5.42827742040577        0.76313565650372       -0.69642463112299
H           -7.44817580556675       -0.43678419927685       -0.75267228208181
H           -7.75575812381209       -1.65988883677788       -2.01433950667374
H           -6.68455378586579       -0.28367107217913       -2.36199732798686
H           -4.12042109527228       -5.64160846517632        0.78356802788953
H           -5.57290287545511       -3.75229752119524        0.12119774945245
H           -2.66469160481966       -4.51861732090060        0.73061119893354
H           -4.35097774832607       -0.74366772465210        2.28869736023804
H           -3.12566693070304        0.53080773305983        2.75181437795026
H           -3.40646287113246        1.66221261667137       -1.75940260688414
H           -1.97195074548721        2.60306565096542       -1.35335315433665
H           -2.14938092826526       -0.39581200527864       -0.81387235234137
H           -1.65481792364020        0.23211471507384       -2.37414843988329
H           -1.32101198688207        1.03933301223389        1.34762663594821
H            0.07631847921790        1.63129391043844       -0.64065063049491
H            2.15720262494871       -0.83438215650783        0.57565680003985
H            1.98841090613211        0.88575145409498        0.18961345107609
H            2.63187029243798        0.43685182266505       -2.16459180486362
H            2.79346447896267       -1.28905681723544       -1.80492340724474
H            4.37765324616612        1.98711746791194       -1.54009157938130
H            6.64792562670370        2.35654153063312       -0.73849508629545
H            8.37217213784744        2.48344194786337        0.88230217907052
H            8.98704805280857        1.93465961606132       -0.70390864013193
H            9.84329197281824        1.48428505923163        0.79119812846493
H            7.29988911470026       -3.69094230552843        1.48219788457616
H            5.62282969651060       -3.11224030235074        1.62524648575812
H            6.26946816224205       -3.60946421898158        0.03300095585470
H            4.51193644799452       -2.05185766089959       -0.17783409708779
H            0.02960144919094       -1.87670453273398       -1.97869554774111
H           -0.78232301966504       -1.97451881226898       -0.41279590683679
H            0.93340726385743       -2.39721067371608       -0.54463942103788
H           -4.90072691238751        2.84941352915867       -0.19590766574025
H           -3.74401287466489        3.61073654501907        2.51305999268836
H           -5.00519381191696        2.39567247299235        2.26443676995436
H           -5.31280030786262        4.08368496383131        1.86484213434429
H           -2.51013373038043        4.60680803991404        0.46215400070619
H           -3.23307582859353        4.35523114710320       -1.13955634587976
H           -4.12824635288585        5.20360787648577        0.10728341257904
H           -0.66787149673154        3.03662627925845        2.36423715183007

          :  Hamiltonian                  GFN2-xTB          :
         :: total energy             -99.331564253527 Eh    ::
         :: gradient norm              0.007655154985 Eh/a0 ::
         :: HOMO-LUMO gap              1.783427485068 eV    ::
         :: SCC energy              -100.730752937655 Eh    ::
         :: -> dispersion             -0.074662387269 Eh    ::
         :: repulsion energy           1.398106567123 Eh    ::

    * Orbital Energies and Occupations

         #    Occupation            Energy/Eh            Energy/eV
      -------------------------------------------------------------
         1        2.0000           -0.8137069             -22.1421
       ...           ...                  ...                  ...
        78        1.9978           -0.5295230             -14.4091
        79        1.9976           -0.5280664             -14.3694
        80        1.9966           -0.5225263             -14.2187
        81        1.9965           -0.5218799             -14.2011
        82        1.9936           -0.5122628             -13.9394
        83        1.9932           -0.5111794             -13.9099
        84        1.9926           -0.5100500             -13.8792
        85        1.9882           -0.5024967             -13.6736
        86        1.9753           -0.4907581             -13.3542
        87        1.9655           -0.4853393             -13.2068
        88        1.9138           -0.4704304             -12.8011
        89        1.8839           -0.4654737             -12.6662
        90        1.8246           -0.4584342             -12.4746 (HOMO)
        91        0.2845           -0.3928945             -10.6912 (LUMO)
        92        0.1908           -0.3857330             -10.4963
        93        0.0097           -0.3370234              -9.1709
        94        0.0037           -0.3218499              -8.7580
        95        0.0024           -0.3151126              -8.5747
        96        0.0020           -0.3123437              -8.4993
        97        0.0002           -0.2775463              -7.5524
        98        0.0000           -0.2280350              -6.2051
        99        0.0000           -0.1900536              -5.1716
       100                         -0.1321560              -3.5961
       101                         -0.0703764              -1.9150
       ...                                ...                  ...
       171                          0.5903137              16.0633
      -------------------------------------------------------------
                  HL-Gap            0.0655398 Eh            1.7834 eV

     #   Z          covCN         q      C6AA      α(0)
     1   7 N        1.774    -0.274    27.920     7.825
     2   6 C        2.827     0.102    25.723     8.311
     3   6 C        3.908     0.007    20.408     6.421
     4   6 C        2.954     0.024    27.474     8.597
     5   6 C        2.904    -0.069    29.726     8.940
     6   6 C        2.842     0.114    25.475     8.272
     7   8 O        1.705    -0.246    18.072     5.740
     8   6 C        3.644     0.028    20.447     6.500
     9   6 C        2.827     0.217    23.432     7.932
    10   8 O        0.857    -0.427    22.219     6.320
    11   6 C        2.842    -0.055    29.364     8.881
    12   6 C        2.891    -0.048    29.191     8.858
    13   6 C        2.849    -0.087    30.170     9.002
    14   6 C        3.813    -0.065    21.745     6.637
    15   6 C        3.803    -0.084    22.109     6.694
    16   6 C        2.849     0.022    27.518     8.597
    17   7 N        2.730     0.038    20.575     6.737
    18   6 C        3.757    -0.020    20.991     6.532
    19   6 C        3.808    -0.071    21.851     6.654
    20   6 C        2.969     0.001    28.003     8.680
    21   6 C        2.921    -0.047    29.176     8.858
    22   6 C        2.914    -0.067    29.661     8.931
    23   6 C        2.864     0.135    25.058     8.205
    24   8 O        1.706    -0.219    17.633     5.670
    25   6 C        3.645     0.024    20.506     6.508
    26   6 C        2.863     0.134    25.068     8.207
    27   8 O        1.706    -0.222    17.685     5.678
    28   6 C        3.645     0.026    20.468     6.503
    29   6 C        2.919    -0.080    29.992     8.981
    30   6 C        3.704    -0.089    22.367     6.762
    31   6 C        3.852    -0.006    20.647     6.463
    32   6 C        3.756    -0.117    22.785     6.806
    33   6 C        3.755    -0.121    22.880     6.820
    34   1 H        0.926     0.057     2.240     2.340
    35   1 H        0.924     0.054     2.269     2.356
    36   1 H        0.925     0.080     1.980     2.201
    37   1 H        0.924     0.052     2.297     2.370
    38   1 H        0.926     0.069     2.100     2.266
    39   1 H        0.926     0.069     2.098     2.265
    40   1 H        0.926     0.071     2.074     2.252
    41   1 H        0.926     0.047     2.358     2.401
    42   1 H        0.926     0.050     2.322     2.383
    43   1 H        0.925     0.060     2.204     2.322
    44   1 H        0.925     0.057     2.238     2.340
    45   1 H        0.923     0.122     1.596     1.976
    46   1 H        0.924     0.083     1.952     2.185
    47   1 H        0.923     0.014     2.823     2.628
    48   1 H        0.926     0.075     2.032     2.229
    49   1 H        0.924     0.075     2.035     2.231
    50   1 H        0.924     0.068     2.107     2.270
    51   1 H        0.924     0.056     2.247     2.344
    52   1 H        0.924     0.060     2.200     2.320
    53   1 H        0.926     0.048     2.340     2.392
    54   1 H        0.926     0.060     2.195     2.317
    55   1 H        0.924     0.056     2.248     2.345
    56   1 H        0.924     0.057     2.231     2.336
    57   1 H        0.925     0.084     1.942     2.179
    58   1 H        0.925     0.083     1.947     2.182
    59   1 H        0.924     0.050     2.320     2.382
    60   1 H        0.924     0.054     2.275     2.359
    61   1 H        0.926     0.048     2.345     2.395
    62   1 H        0.924     0.080     1.977     2.199
    63   1 H        0.924     0.126     1.566     1.957
    64   1 H        0.925     0.081     1.966     2.193
    65   1 H        0.924     0.036     2.502     2.474
    66   1 H        0.925     0.061     2.188     2.313
    67   1 H        0.925     0.037     2.487     2.466
    68   1 H        0.925     0.051     2.305     2.374
    69   1 H        0.925     0.069     2.098     2.265
    70   1 H        0.925     0.036     2.502     2.474
    71   1 H        0.925     0.055     2.259     2.351
    72   1 H        0.860     0.154     1.375     1.837

Wiberg/Mayer (AO) data.
largest (>0.10) Wiberg bond orders for each atom

     #   Z sym  total        # sym  WBO       # sym  WBO       # sym  WBO
 ---------------------------------------------------------------------------
     1   7 N    3.014 --     2 C    1.947    72 H    0.942
     2   6 C    3.935 --     1 N    1.947     3 C    0.992    47 H    0.921
     3   6 C    3.971 --     2 C    0.992     4 C    0.963    14 C    0.953
                            31 C    0.943
     4   6 C    3.959 --    13 C    1.820     5 C    1.091     3 C    0.963
     5   6 C    3.885 --     6 C    1.618     4 C    1.091    34 H    0.942
                             7 O    0.104
     6   6 C    3.879 --     5 C    1.618     7 O    1.090     9 C    1.009
     7   8 O    2.243 --     6 C    1.090     8 C    0.974     5 C    0.104
     8   6 C    3.931 --    36 H    0.976     7 O    0.974    35 H    0.974
                            37 H    0.972
     9   6 C    3.842 --    10 O    1.641    12 C    1.088     6 C    1.009
    10   8 O    1.922 --     9 C    1.641
    11   6 C    3.884 --    12 C    1.833    38 H    0.974    40 H    0.972
    12   6 C    3.958 --    11 C    1.833     9 C    1.088    39 H    0.962
    13   6 C    3.915 --     4 C    1.820    41 H    0.973    42 H    0.969
    14   6 C    3.986 --    15 C    1.002    44 H    0.969    43 H    0.968
                             3 C    0.953
    15   6 C    3.975 --    16 C    1.075    14 C    1.002    46 H    0.920
                            45 H    0.901
    16   6 C    3.678 --    17 N    1.481    15 C    1.075    48 H    0.954
    17   7 N    3.553 --    16 C    1.481    30 C    0.995    18 C    0.987
    18   6 C    3.954 --    17 N    0.987    50 H    0.969    19 C    0.968
                            49 H    0.961
    19   6 C    3.979 --    20 C    1.008    51 H    0.973    52 H    0.969
                            18 C    0.968
    20   6 C    3.940 --    21 C    1.409    29 C    1.379    19 C    1.008
    21   6 C    3.946 --    22 C    1.416    20 C    1.409    53 H    0.968
    22   6 C    3.956 --    21 C    1.416    23 C    1.382    54 H    0.963
    23   6 C    3.891 --    22 C    1.382    26 C    1.215    24 O    1.114
    24   8 O    2.255 --    23 C    1.114    25 C    0.975
    25   6 C    3.926 --    57 H    0.977    24 O    0.975    56 H    0.972
                            55 H    0.972
    26   6 C    3.895 --    29 C    1.395    23 C    1.215    27 O    1.107
    27   8 O    2.254 --    26 C    1.107    28 C    0.978
    28   6 C    3.930 --    27 O    0.978    58 H    0.976    59 H    0.973
                            60 H    0.973
    29   6 C    3.957 --    26 C    1.395    20 C    1.379    61 H    0.962
    30   6 C    3.941 --    17 N    0.995    64 H    0.978    62 H    0.962
                            63 H    0.940
    31   6 C    3.975 --    32 C    1.009    33 C    1.006    65 H    0.959
                             3 C    0.943
    32   6 C    3.980 --    31 C    1.009    68 H    0.981    67 H    0.980
                            66 H    0.977
    33   6 C    3.976 --    31 C    1.006    70 H    0.982    71 H    0.979
                            69 H    0.972
    34   1 H    0.992 --     5 C    0.942
    35   1 H    0.994 --     8 C    0.974
    36   1 H    0.992 --     8 C    0.976
    37   1 H    0.993 --     8 C    0.972
    38   1 H    0.992 --    11 C    0.974
    39   1 H    0.993 --    12 C    0.962
    40   1 H    0.994 --    11 C    0.972
    41   1 H    0.996 --    13 C    0.973
    42   1 H    0.996 --    13 C    0.969
    43   1 H    0.995 --    14 C    0.968
    44   1 H    0.995 --    14 C    0.969
    45   1 H    0.975 --    15 C    0.901
    46   1 H    0.974 --    15 C    0.920
    47   1 H    0.981 --     2 C    0.921
    48   1 H    0.994 --    16 C    0.954
    49   1 H    0.990 --    18 C    0.961
    50   1 H    0.995 --    18 C    0.969
    51   1 H    0.996 --    19 C    0.973
    52   1 H    0.995 --    19 C    0.969
    53   1 H    0.997 --    21 C    0.968
    54   1 H    0.995 --    22 C    0.963
    55   1 H    0.991 --    25 C    0.972
    56   1 H    0.991 --    25 C    0.972
    57   1 H    0.992 --    25 C    0.977
    58   1 H    0.992 --    28 C    0.976
    59   1 H    0.992 --    28 C    0.973
    60   1 H    0.992 --    28 C    0.973
    61   1 H    0.996 --    29 C    0.962
    62   1 H    0.985 --    30 C    0.962
    63   1 H    0.979 --    30 C    0.940
    64   1 H    0.993 --    30 C    0.978
    65   1 H    0.991 --    31 C    0.959
    66   1 H    0.992 --    32 C    0.977
    67   1 H    0.996 --    32 C    0.980
    68   1 H    0.994 --    32 C    0.981
    69   1 H    0.990 --    33 C    0.972
    70   1 H    0.996 --    33 C    0.982
    71   1 H    0.993 --    33 C    0.979
    72   1 H    0.970 --     1 N    0.942
 ---------------------------------------------------------------------------

molecular dipole:
                 x           y           z       tot (Debye)
 q only:        0.699      -0.044      -0.975
   full:        0.530      -0.272      -1.029       3.021

           -------------------------------------------------
          | TOTAL ENERGY              -99.331564253527 Eh   |
          | GRADIENT NORM               0.007655154985 Eh/α |
          | HOMO-LUMO GAP               1.783427485068 eV   |
           -------------------------------------------------

 * finished run on 2024/04/06 at 11:16:32.817
