   * xtb version 6.6.1 (8d0f1dd) compiled by 'conda@1efc2f54142f' on 2023-08-01
          program call               : xtb struc.xyz --opt loose --input .xc1 --gfn2

   ID    Z sym.   atoms
    1    6 C      1, 3, 5-7, 10, 11, 14
    2    7 N      2, 4, 9, 13
    3    8 O      8, 12
    4    1 H      15-25
constraining bond 12 21 to    4.6333300 Å, actual value:    2.6132888 Å

          :  Hamiltonian                  GFN2-xTB          :
 * total energy  :   -49.5312658 Eh     change       -0.6633627E-10 Eh
 * total energy  :   -55.8747541 Eh     change       -0.6343488E+01 Eh
 * total energy  :   -64.1087942 Eh     change       -0.8234040E+01 Eh
 * total energy  :   -71.9023272 Eh     change       -0.7793533E+01 Eh
 * total energy  :   -71.0826099 Eh     change        0.8197173E+00 Eh
 * total energy  :   -71.9648291 Eh     change       -0.8822192E+00 Eh
 * total energy  :   -72.0022704 Eh     change       -0.3744128E-01 Eh
 * total energy  :   -72.0501396 Eh     change       -0.4786926E-01 Eh
 * total energy  :   -72.0729459 Eh     change       -0.2280630E-01 Eh
 * total energy  :   -72.1169524 Eh     change       -0.4400647E-01 Eh
 * total energy  :   -72.2056917 Eh     change       -0.2824892E-04 Eh
 * total energy  :   -72.2057210 Eh     change       -0.2934146E-04 Eh
 * total energy  :   -72.2057430 Eh     change       -0.2195425E-04 Eh
 * total energy  :   -72.2057672 Eh     change       -0.2427617E-04 Eh
 * total energy  :   -72.2057896 Eh     change       -0.2241382E-04 Eh
 * total energy  :   -72.2058007 Eh     change       -0.1103937E-04 Eh
 * total energy  :   -72.2028977 Eh     change        0.2902973E-02 Eh
 * total energy  :   -72.2057890 Eh     change       -0.2891333E-02 Eh
 * total energy  :   -72.2058267 Eh     change       -0.3763605E-04 Eh
   *** GEOMETRY OPTIMIZATION CONVERGED AFTER 47 ITERATIONS ***

 final structure:
================
25
 xtb: 6.6.1 (8d0f1dd)
C            3.30591746361948        1.10411831181025       -0.02001187223079
N            2.31110586350568        0.06608647043079       -0.01391194828931
C            2.52922541810701       -1.24496645646304        0.01641240912343
N            1.35287103367542       -1.91449939391315        0.03753371497734
C            0.34226164514089       -0.99155591509657        0.02340540198583
C            0.94148820112279        0.27615080508217       -0.01037865403424
C            0.21362369262541        1.48420289821765       -0.06363526527372
O            0.62570832211370        2.62035787524102       -0.11851343114403
N           -1.24370136006976        1.24124864779189       -0.04714692273401
C           -2.00486400220642        2.33021099386626       -0.08851380657804
C           -1.76200628768011       -0.01788577983166        0.01060302496083
O           -3.10616024823409       -0.18655634809509        0.04687280694268
N           -0.98679617565694       -1.15612945559190        0.03415342299536
C           -1.58274526670104       -2.47754731692072        0.06321423847559
H            3.77950656607416        1.18231908503959        0.96003607010497
H            4.07084645785160        0.89097279366455       -0.76525621432592
H            2.81907568259449        2.05097754176757       -0.24922816564110
H            3.49331376944037       -1.71167864562902        0.02310868565676
H           -1.50479153563387        3.27529927097900       -0.12927891646563
H           -3.07251165726416        2.26854271578425       -0.10396716430068
H           -3.39662515211462        0.07552633803718        0.15667499539004
H           -1.32388570278504       -2.98632906120620        0.99245624826275
H           -1.23400727034036       -3.06204747534985       -0.78817132710174
H           -2.66269264667873       -2.38101731350868        0.00222447418925
H            1.25627470359430       -2.91756204450643        0.06248981295452

          :  Hamiltonian                  GFN2-xTB          :
         :: total energy             -72.205826684391 Eh    ::
         :: gradient norm              0.003388244267 Eh/a0 ::
         :: HOMO-LUMO gap              0.956644918560 eV    ::
         :: SCC energy               -42.716268613252 Eh    ::
         :: -> dispersion             -0.022979461931 Eh    ::
         :: repulsion energy           2.413201081211 Eh    ::

    * Orbital Energies and Occupations

         #    Occupation            Energy/Eh            Energy/eV
      -------------------------------------------------------------
         1        2.0000           -0.9056603             -24.6443
       ...           ...                  ...                  ...
        25        2.0000           -0.6651385             -18.0993
        26        2.0000           -0.6618108             -18.0088
        27        2.0000           -0.6480021             -17.6330
        28        2.0000           -0.6344861             -17.2652
        29        2.0000           -0.6280760             -17.0908
        30        2.0000           -0.6234060             -16.9637
        31        2.0000           -0.6190235             -16.8445
        32        2.0000           -0.6173440             -16.7988
        33        2.0000           -0.5997227             -16.3193
        34        2.0000           -0.5860480             -15.9472
        35        2.0000           -0.5532898             -15.0558
        36        2.0000           -0.5498623             -14.9625
        37        1.8030           -0.4557785             -12.4024 (HOMO)
        38        0.1947           -0.4206224             -11.4457 (LUMO)
        39        0.0019           -0.3832704             -10.4293
        40        0.0004           -0.3699627             -10.0672
        41                         -0.2732588              -7.4358
        42                         -0.2017603              -5.4902
        43                         -0.1872092              -5.0942
        44                         -0.1589713              -4.3258
        45                         -0.1236311              -3.3642
        46                         -0.0825719              -2.2469
        47                         -0.0372656              -1.0140
        48                         -0.0138331              -0.3764
       ...                                ...                  ...
        67                          5.3350910             145.1752
      -------------------------------------------------------------
                  HL-Gap            0.0351561 Eh            0.9566 eV

     #   Z          covCN         q      C6AA      α(0)
     1   6 C        3.691    -0.092    22.454     6.781
     2   7 N        2.823     0.070    20.027     6.647
     3   6 C        3.035     0.046    26.930     8.512
     4   7 N        2.779    -0.065    22.498     7.045
     5   6 C        3.053     0.082    26.118     8.381
     6   6 C        3.086    -0.034    28.736     8.787
     7   6 C        2.775     0.244    22.907     7.839
     8   8 O        0.857    -0.370    21.084     6.156
     9   7 N        2.736    -0.005    21.359     6.864
    10   6 C        2.813    -0.093    30.317     9.021
    11   6 C        2.805     0.182    24.088     8.041
    12   8 O        1.664    -0.386    20.579     6.124
    13   7 N        2.736    -0.008    21.413     6.873
    14   6 C        3.699    -0.083    22.253     6.747
    15   1 H        0.924     0.102     1.763     2.076
    16   1 H        0.925     0.099     1.795     2.095
    17   1 H        0.925     0.132     1.519     1.928
    18   1 H        0.926     0.116     1.644     2.005
    19   1 H        0.927     0.107     1.725     2.054
    20   1 H        0.927     0.068     2.112     2.272
    21   1 H        0.859     0.368     0.542     1.153
    22   1 H        0.924     0.090     1.881     2.145
    23   1 H        0.925     0.089     1.888     2.149
    24   1 H        0.925     0.119     1.618     1.989
    25   1 H        0.860     0.220     1.009     1.574

Wiberg/Mayer (AO) data.
largest (>0.10) Wiberg bond orders for each atom

     #   Z sym  total        # sym  WBO       # sym  WBO       # sym  WBO
 ---------------------------------------------------------------------------
     1   6 C    3.922 --     2 N    0.988    16 H    0.966    17 H    0.962
                            15 H    0.958
     2   7 N    3.637 --     3 C    1.378     6 C    1.121     1 C    0.988
     3   6 C    3.811 --     2 N    1.378     4 N    1.263    18 H    0.955
     4   7 N    3.549 --     3 C    1.263     5 C    1.166    25 H    0.924
     5   6 C    3.920 --     6 C    1.258    13 N    1.218     4 N    1.166
     6   6 C    3.904 --     5 C    1.258     7 C    1.182     2 N    1.121
     7   6 C    3.906 --     8 O    1.671     6 C    1.182     9 N    0.909
     8   8 O    2.029 --     7 C    1.671     9 N    0.102
     9   7 N    3.685 --    10 C    1.356    11 C    1.189     7 C    0.909
                             8 O    0.102
    10   6 C    3.729 --     9 N    1.356    20 H    0.973    19 H    0.963
                            11 C    0.203
    11   6 C    3.785 --     9 N    1.189    13 N    1.138    12 O    1.086
                            10 C    0.203
    12   8 O    2.134 --    11 C    1.086    21 H    0.857
    13   7 N    3.590 --     5 C    1.218    11 C    1.138    14 C    0.974
    14   6 C    3.928 --    13 N    0.974    23 H    0.971    22 H    0.970
                            24 H    0.968
    15   1 H    0.984 --     1 C    0.958
    16   1 H    0.987 --     1 C    0.966
    17   1 H    0.982 --     1 C    0.962
    18   1 H    0.986 --     3 C    0.955
    19   1 H    0.988 --    10 C    0.963
    20   1 H    0.995 --    10 C    0.973
    21   1 H    0.864 --    12 O    0.857
    22   1 H    0.989 --    14 C    0.970
    23   1 H    0.989 --    14 C    0.971
    24   1 H    0.985 --    14 C    0.968
    25   1 H    0.951 --     4 N    0.924
 ---------------------------------------------------------------------------

molecular dipole:
                 x           y           z       tot (Debye)
 q only:        1.116      -2.498       0.149
   full:        0.932      -2.873       0.221       7.697

           -------------------------------------------------
          | TOTAL ENERGY              -72.205826684391 Eh   |
          | GRADIENT NORM               0.003388244267 Eh/α |
          | HOMO-LUMO GAP               0.956644918560 eV   |
           -------------------------------------------------

 * finished run on 2024/06/05 at 19:58:00.287
