   * xtb version 6.6.1 (8d0f1dd) compiled by 'conda@1efc2f54142f' on 2023-08-01
          program call               : xtb xtbopt.xyz --opt crude --input .xc2 --gfn2

   ID    Z sym.   atoms
    1    6 C      1, 3, 5-7, 10, 11, 14
    2    7 N      2, 4, 9, 13
    3    8 O      8, 12
    4    1 H      15-25
########################################################################
[WARNING] Please study the warnings concerning your input carefully
-1- readin_getIntValue: could not parse ''
########################################################################

          :  Hamiltonian                  GFN2-xTB          :
 * total energy  :   -40.3029602 Eh     change       -0.3552714E-12 Eh
 * total energy  :   -42.1225185 Eh     change       -0.1819558E+01 Eh
 * total energy  :   -42.1511030 Eh     change       -0.2858445E-01 Eh
 * total energy  :   -42.1536889 Eh     change       -0.2585959E-02 Eh
 * total energy  :   -42.1544485 Eh     change       -0.7595434E-03 Eh
 * total energy  :   -42.1551834 Eh     change       -0.7348875E-03 Eh
 * total energy  :   -42.1562484 Eh     change       -0.1065024E-02 Eh
 * total energy  :   -42.1574698 Eh     change       -0.1221432E-02 Eh
 * total energy  :   -42.1583020 Eh     change       -0.8321813E-03 Eh
 * total energy  :   -42.1586331 Eh     change       -0.3310775E-03 Eh
 * total energy  :   -42.1588121 Eh     change       -0.1789901E-03 Eh
 * total energy  :   -42.1589947 Eh     change       -0.1826642E-03 Eh
 * total energy  :   -42.1592546 Eh     change       -0.2599008E-03 Eh
 * total energy  :   -42.1595292 Eh     change       -0.2745247E-03 Eh
 * total energy  :   -42.1597492 Eh     change       -0.2200519E-03 Eh
   *** GEOMETRY OPTIMIZATION CONVERGED AFTER 15 ITERATIONS ***

 final structure:
================
25
 xtb: 6.6.1 (8d0f1dd)
C            3.29920252704637        1.11362954976228        0.02012067722355
N            2.31671819176325        0.06330635348357        0.00414081337017
C            2.54545087368881       -1.24643277483910        0.01375665788992
N            1.37353972774787       -1.92424868926400        0.01348200343507
C            0.35589013880253       -1.01050328763484        0.00927426996214
C            0.94507709507764        0.26149999534721       -0.00052007520673
C            0.20579696741914        1.46451601189351       -0.05446459844878
O            0.61292871053200        2.60406503115765       -0.08874251144274
N           -1.24445219731968        1.20993913547744       -0.09019896817066
C           -2.01037102100057        2.29722199968647       -0.18682377490632
C           -1.75003881233934       -0.04748601704044        0.02187647965508
O           -3.08364813000702       -0.25786929660266        0.07985629978185
N           -0.97249189349946       -1.18258409073301        0.03461934884378
C           -1.56458912994381       -2.50611118493214        0.04906196106621
H            3.83135958085607        1.12143596015490        0.97327801474123
H            4.02044521251889        0.97303473774222       -0.78472240917252
H            2.78767400399439        2.06691539159491       -0.10866975048917
H            3.51220317278002       -1.70794908784428        0.01598812968114
H           -1.51020120942522        3.24311369775573       -0.20925571742209
H           -3.07155170886785        2.22849883074355       -0.32217546380786
H           -3.55531184036909        0.49537190400529        0.45955830939891
H           -1.20032056461981       -3.06783586033250        0.91011229937933
H           -1.31789811216220       -3.03717322789614       -0.87120410441855
H           -2.64426535817120       -2.40755145280243        0.11830490185729
H            1.27928528959837       -2.92856508728343        0.02451882509990

          :  Hamiltonian                  GFN2-xTB          :
         :: total energy             -42.159749202536 Eh    ::
         :: gradient norm              0.007342679406 Eh/a0 ::
         :: HOMO-LUMO gap              0.967670660240 eV    ::
         :: SCC energy               -42.679640387526 Eh    ::
         :: -> dispersion             -0.022956079677 Eh    ::
         :: repulsion energy           0.519783607841 Eh    ::

    * Orbital Energies and Occupations

         #    Occupation            Energy/Eh            Energy/eV
      -------------------------------------------------------------
         1        2.0000           -0.8932503             -24.3066
       ...           ...                  ...                  ...
        25        2.0000           -0.6666515             -18.1405
        26        2.0000           -0.6605334             -17.9740
        27        2.0000           -0.6488648             -17.6565
        28        2.0000           -0.6367506             -17.3269
        29        2.0000           -0.6278286             -17.0841
        30        2.0000           -0.6211340             -16.9019
        31        2.0000           -0.6178536             -16.8127
        32        2.0000           -0.6165741             -16.7778
        33        2.0000           -0.6002878             -16.3347
        34        2.0000           -0.5880296             -16.0011
        35        2.0000           -0.5535357             -15.0625
        36        2.0000           -0.5502086             -14.9719
        37        1.8075           -0.4568835             -12.4324 (HOMO)
        38        0.1903           -0.4213223             -11.4648 (LUMO)
        39        0.0019           -0.3839233             -10.4471
        40        0.0004           -0.3710451             -10.0967
        41                         -0.2742538              -7.4628
        42                         -0.2016456              -5.4871
        43                         -0.1889205              -5.1408
        44                         -0.1573682              -4.2822
        45                         -0.1235090              -3.3609
        46                         -0.1016916              -2.7672
        47                         -0.0478010              -1.3007
        48                         -0.0356106              -0.9690
       ...                                ...                  ...
        67                          0.5577941              15.1784
      -------------------------------------------------------------
                  HL-Gap            0.0355612 Eh            0.9677 eV

     #   Z          covCN         q      C6AA      α(0)
     1   6 C        3.691    -0.092    22.460     6.782
     2   7 N        2.823     0.069    20.036     6.648
     3   6 C        3.034     0.047    26.910     8.509
     4   7 N        2.780    -0.065    22.496     7.044
     5   6 C        3.053     0.083    26.095     8.378
     6   6 C        3.088    -0.033    28.724     8.785
     7   6 C        2.777     0.245    22.890     7.836
     8   8 O        0.857    -0.373    21.142     6.165
     9   7 N        2.736    -0.010    21.457     6.880
    10   6 C        2.812    -0.100    30.506     9.049
    11   6 C        2.757     0.191    23.912     8.008
    12   8 O        1.659    -0.364    20.159     6.061
    13   7 N        2.737    -0.006    21.375     6.867
    14   6 C        3.698    -0.078    22.160     6.733
    15   1 H        0.924     0.101     1.774     2.083
    16   1 H        0.925     0.100     1.789     2.092
    17   1 H        0.925     0.133     1.513     1.924
    18   1 H        0.926     0.116     1.642     2.004
    19   1 H        0.927     0.107     1.723     2.053
    20   1 H        0.926     0.064     2.156     2.296
    21   1 H        0.805     0.346     0.598     1.215
    22   1 H        0.924     0.085     1.924     2.169
    23   1 H        0.924     0.089     1.891     2.151
    24   1 H        0.925     0.124     1.582     1.967
    25   1 H        0.860     0.220     1.008     1.573

Wiberg/Mayer (AO) data.
largest (>0.10) Wiberg bond orders for each atom

     #   Z sym  total        # sym  WBO       # sym  WBO       # sym  WBO
 ---------------------------------------------------------------------------
     1   6 C    3.921 --     2 N    0.988    16 H    0.965    17 H    0.961
                            15 H    0.959
     2   7 N    3.638 --     3 C    1.379     6 C    1.121     1 C    0.988
     3   6 C    3.813 --     2 N    1.379     4 N    1.264    18 H    0.955
     4   7 N    3.551 --     3 C    1.264     5 C    1.167    25 H    0.923
     5   6 C    3.923 --     6 C    1.262    13 N    1.218     4 N    1.167
     6   6 C    3.905 --     5 C    1.262     7 C    1.180     2 N    1.121
     7   6 C    3.907 --     8 O    1.668     6 C    1.180     9 N    0.916
     8   8 O    2.027 --     7 C    1.668     9 N    0.102
     9   7 N    3.681 --    10 C    1.340    11 C    1.197     7 C    0.916
                             8 O    0.102
    10   6 C    3.722 --     9 N    1.340    20 H    0.966    19 H    0.963
                            11 C    0.205
    11   6 C    3.800 --     9 N    1.197    13 N    1.143    12 O    1.091
                            10 C    0.205
    12   8 O    2.114 --    11 C    1.091    21 H    0.843
    13   7 N    3.593 --     5 C    1.218    11 C    1.143    14 C    0.973
    14   6 C    3.927 --    13 N    0.973    22 H    0.971    23 H    0.969
                            24 H    0.967
    15   1 H    0.985 --     1 C    0.959
    16   1 H    0.986 --     1 C    0.965
    17   1 H    0.982 --     1 C    0.961
    18   1 H    0.985 --     3 C    0.955
    19   1 H    0.988 --    10 C    0.963
    20   1 H    0.995 --    10 C    0.966
    21   1 H    0.878 --    12 O    0.843
    22   1 H    0.990 --    14 C    0.971
    23   1 H    0.989 --    14 C    0.969
    24   1 H    0.984 --    14 C    0.967
    25   1 H    0.951 --     4 N    0.923
 ---------------------------------------------------------------------------

molecular dipole:
                 x           y           z       tot (Debye)
 q only:        1.041      -2.308       0.291
   full:        1.004      -2.663       0.349       7.288

           -------------------------------------------------
          | TOTAL ENERGY              -42.159749202536 Eh   |
          | GRADIENT NORM               0.007342679406 Eh/α |
          | HOMO-LUMO GAP               0.967670660240 eV   |
           -------------------------------------------------

 * finished run on 2024/06/05 at 19:58:01.308
