   * xtb version 6.6.1 (8d0f1dd) compiled by 'conda@1efc2f54142f' on 2023-08-01
          program call               : xtb xtbopt.xyz --opt crude --input .xc2 --gfn2

   ID    Z sym.   atoms
    1    7 N      1, 17
    2    6 C      2-6, 8, 9, 11-16, 18-23, 25, 26, 28-33
    3    8 O      7, 10, 24, 27
    4    1 H      34-72

          :  Hamiltonian                  GFN2-xTB          :
 * total energy  :   -99.3575076 Eh     change       -0.1080025E-11 Eh
   *** GEOMETRY OPTIMIZATION CONVERGED AFTER 1 ITERATIONS ***

 final structure:
================
72
 xtb: 6.6.1 (8d0f1dd)
N           -1.82302635631510        2.99832448996871        2.25055834219485
C           -1.73666126629951        2.28776066027318        1.22772635291228
C           -2.85081088960152        2.06019049015995        0.24454372083405
C           -3.28039067174350        0.60232227210397        0.29321334261754
C           -4.12585975787382        0.08142749762054       -0.68863283102602
C           -4.54588163843689       -1.22862214484117       -0.64943965340261
O           -7.78885524047442       -2.27874736520813       -2.59301527125219
C           -8.98533140701797       -2.27435119819886       -2.59973808303699
C           -4.13043244246499       -2.07852842932746        0.38395873470339
O           -4.58223202116910       -3.34768363033865        0.32277306795015
C           -4.29251625533193       -4.23627977885860        1.37783182493743
C           -3.29511928371880       -1.56689497893496        1.37484773042227
C           -2.88529824354380       -0.24351991344710        1.32228101796290
C           -2.26325544763787        2.39958445231649       -1.15040454348640
C           -1.30393516895647        1.33881345515812       -1.71883280167772
C            0.00428800476379        1.28346459490214       -1.03059407641413
N            0.62889793394633        0.17570834537930       -0.65516542973126
C            2.00458624453455        0.22245531040992       -0.21811571123477
C            2.96879608144812       -0.21104973465332       -1.33942271482351
C            4.39207173646894       -0.07518568932239       -0.87580792983437
C            5.06075663816406        1.13155131740773       -1.00475366485945
C            6.36482552894196        1.27298923169199       -0.55661032729606
C            7.02690599108435        0.20639151397084        0.03423624616780
O            8.28732930493015        0.22594309593545        0.50401631953613
C            9.04729570294081        1.40700777664680        0.38809739155533
C            6.34860871753687       -1.03687822579940        0.17140596542835
O            7.06964755247706       -2.01900504705973        0.74670084140680
C            6.49852386380652       -3.29614887907373        0.90165814909734
C            5.04314639358250       -1.15259620556221       -0.27984154878275
C            0.00170964861289       -1.12159202409381       -0.73607017599691
C           -4.10566212946939        2.94297454343617        0.51400830002946
C           -4.76502547622280        2.58945229242532        1.84472543712272
C           -3.80749292982339        4.43887882150728        0.46789487820000
H           -4.47599155261207        0.71108315917666       -1.49141108338347
H           -9.58859563803908       -2.74386293136834       -1.80469940976297
H           -9.57402764044310       -1.80404129133628       -3.40300628028649
H           -5.21407676099143       -1.62505167354933       -1.39713477951881
H           -4.65740156963643       -3.85372402926174        2.33525530255130
H           -4.81512490425523       -5.15949656876461        1.13540382266194
H           -3.21848584937410       -4.43851828630576        1.44992794664686
H           -2.96817983698496       -2.18169677772751        2.19846393113455
H           -2.26159332507457        0.13325150598032        2.12003552523316
H           -3.08577390263271        2.51754340849347       -1.85472261422167
H           -1.74129806009306        3.35539384161099       -1.08817791947186
H           -1.79686345975072        0.36841984966419       -1.73132297364753
H           -1.10606506194618        1.62564997869660       -2.76029184738970
H           -0.80591414693798        1.77639337188750        0.91023905040251
H            0.56632478088823        2.20369696227380       -0.95579822282472
H            2.13132230145711       -0.43448186526203        0.64636222763989
H            2.25372920531848        1.24078109989296        0.08728316595539
H            2.79984754563573        0.42547621251812       -2.20989350619450
H            2.76105307561583       -1.24382039248889       -1.62135272013335
H            4.57092518364020        1.97302298961634       -1.47080948634424
H            6.86103606256417        2.22179687703590       -0.67770083255253
H            8.58968232259966        2.23393053550967        0.93959563971751
H            9.18153165839576        1.69497313893478       -0.65877446874278
H           10.01606831162793        1.17425476612649        0.82570409092282
H            7.27379071303601       -3.90875427066305        1.35769126085992
H            5.62568468760847       -3.26791968113355        1.56183885743804
H            6.21568724127061       -3.72956041233271       -0.06266215607629
H            4.52227840984760       -2.09257243532562       -0.18528307525758
H           -0.14965377092476       -1.42612882618079       -1.77346947825422
H           -0.96687359105918       -1.10751670399835       -0.23059414191583
H            0.63631449399037       -1.85715299681024       -0.24827577599346
H           -4.81975205237615        2.71275025639304       -0.28510904036528
H           -4.09248035279072        2.81498111913287        2.66626222338437
H           -5.03226245846237        1.53620345259564        1.88317801858391
H           -5.67177956629277        3.17564198299362        1.96816812721889
H           -3.07801961057141        4.70192669653395        1.22792410765042
H           -3.44001171970516        4.75073013522154       -0.50613154190882
H           -4.72184994471911        4.99052352306081        0.66973737760147
H           -0.99628833792428        3.10185688514330        2.83078262104215

          :  Hamiltonian                  GFN2-xTB          :
         :: total energy             -99.357507569076 Eh    ::
         :: gradient norm              0.003119626297 Eh/a0 ::
         :: HOMO-LUMO gap              1.676668333316 eV    ::
         :: SCC energy              -100.760569314526 Eh    ::
         :: -> dispersion             -0.072399869501 Eh    ::
         :: repulsion energy           1.402051453790 Eh    ::

    * Orbital Energies and Occupations

         #    Occupation            Energy/Eh            Energy/eV
      -------------------------------------------------------------
         1        2.0000           -0.8068299             -21.9550
       ...           ...                  ...                  ...
        78        1.9979           -0.5266042             -14.3296
        79        1.9979           -0.5263397             -14.3224
        80        1.9970           -0.5204434             -14.1620
        81        1.9952           -0.5131717             -13.9641
        82        1.9944           -0.5106973             -13.8968
        83        1.9940           -0.5096177             -13.8674
        84        1.9931           -0.5074809             -13.8093
        85        1.9886           -0.4994637             -13.5911
        86        1.9780           -0.4889573             -13.3052
        87        1.9627           -0.4804875             -13.0747
        88        1.9332           -0.4710046             -12.8167
        89        1.9126           -0.4665842             -12.6964
        90        1.8387           -0.4562567             -12.4154 (HOMO)
        91        0.3776           -0.3946403             -10.7387 (LUMO)
        92        0.0252           -0.3486431              -9.4871
        93        0.0130           -0.3380239              -9.1981
        94        0.0037           -0.3180501              -8.6546
        95        0.0026           -0.3128108              -8.5120
        96        0.0023           -0.3106157              -8.4523
        97        0.0022           -0.3101054              -8.4384
        98        0.0000           -0.1880450              -5.1170
        99        0.0000           -0.1875719              -5.1041
       100                         -0.1360508              -3.7021
       101                         -0.0662157              -1.8018
       ...                                ...                  ...
       171                          0.5761699              15.6784
      -------------------------------------------------------------
                  HL-Gap            0.0616164 Eh            1.6767 eV

     #   Z          covCN         q      C6AA      α(0)
     1   7 N        1.774    -0.267    27.763     7.802
     2   6 C        2.827     0.103    25.722     8.311
     3   6 C        3.907     0.006    20.422     6.423
     4   6 C        2.975     0.000    28.016     8.682
     5   6 C        2.923    -0.037    28.914     8.818
     6   6 C        2.917    -0.054    29.338     8.882
     7   8 O        0.856    -0.274    19.321     5.893
     8   6 C        2.701     0.180    24.124     8.039
     9   6 C        2.864     0.149    24.767     8.158
    10   8 O        1.706    -0.242    18.008     5.730
    11   6 C        3.644     0.029    20.421     6.496
    12   6 C        2.914    -0.070    29.754     8.945
    13   6 C        2.923    -0.042    29.043     8.838
    14   6 C        3.812    -0.065    21.734     6.636
    15   6 C        3.802    -0.070    21.842     6.654
    16   6 C        2.844     0.010    27.786     8.639
    17   7 N        2.729     0.014    21.017     6.809
    18   6 C        3.756    -0.017    20.927     6.523
    19   6 C        3.808    -0.070    21.843     6.653
    20   6 C        2.969     0.000    28.024     8.683
    21   6 C        2.922    -0.049    29.208     8.863
    22   6 C        2.914    -0.067    29.675     8.933
    23   6 C        2.865     0.134    25.073     8.208
    24   8 O        1.706    -0.221    17.667     5.675
    25   6 C        3.645     0.025    20.494     6.506
    26   6 C        2.863     0.133    25.081     8.209
    27   8 O        1.706    -0.224    17.712     5.682
    28   6 C        3.645     0.027    20.459     6.501
    29   6 C        2.919    -0.079    29.981     8.979
    30   6 C        3.700    -0.071    22.028     6.712
    31   6 C        3.853    -0.008    20.679     6.468
    32   6 C        3.756    -0.118    22.809     6.810
    33   6 C        3.755    -0.118    22.824     6.812
    34   1 H        0.926     0.050     2.319     2.382
    35   1 H        0.923     0.053     2.285     2.364
    36   1 H        0.923     0.054     2.277     2.360
    37   1 H        0.926     0.079     1.986     2.204
    38   1 H        0.924     0.053     2.286     2.365
    39   1 H        0.925     0.078     2.003     2.213
    40   1 H        0.924     0.046     2.375     2.410
    41   1 H        0.926     0.044     2.390     2.418
    42   1 H        0.926     0.034     2.525     2.485
    43   1 H        0.925     0.064     2.154     2.295
    44   1 H        0.924     0.053     2.283     2.363
    45   1 H        0.925     0.070     2.089     2.260
    46   1 H        0.923     0.083     1.952     2.185
    47   1 H        0.922     0.005     2.980     2.700
    48   1 H        0.926     0.070     2.083     2.257
    49   1 H        0.924     0.068     2.109     2.271
    50   1 H        0.924     0.068     2.110     2.272
    51   1 H        0.924     0.056     2.250     2.346
    52   1 H        0.924     0.056     2.245     2.343
    53   1 H        0.926     0.045     2.378     2.411
    54   1 H        0.926     0.059     2.211     2.325
    55   1 H        0.924     0.055     2.264     2.353
    56   1 H        0.924     0.056     2.242     2.341
    57   1 H        0.925     0.083     1.951     2.184
    58   1 H        0.925     0.082     1.956     2.187
    59   1 H        0.924     0.049     2.331     2.388
    60   1 H        0.924     0.053     2.285     2.364
    61   1 H        0.926     0.048     2.349     2.396
    62   1 H        0.924     0.078     1.999     2.211
    63   1 H        0.924     0.081     1.966     2.193
    64   1 H        0.925     0.080     1.981     2.201
    65   1 H        0.924     0.041     2.441     2.443
    66   1 H        0.925     0.068     2.109     2.271
    67   1 H        0.925     0.036     2.500     2.473
    68   1 H        0.925     0.051     2.307     2.375
    69   1 H        0.925     0.061     2.191     2.315
    70   1 H        0.925     0.035     2.514     2.480
    71   1 H        0.925     0.055     2.264     2.353
    72   1 H        0.860     0.157     1.355     1.824

Wiberg/Mayer (AO) data.
largest (>0.10) Wiberg bond orders for each atom

     #   Z sym  total        # sym  WBO       # sym  WBO       # sym  WBO
 ---------------------------------------------------------------------------
     1   7 N    3.040 --     2 C    1.957    72 H    0.941
     2   6 C    3.930 --     1 N    1.957     3 C    0.995    47 H    0.900
     3   6 C    3.974 --     2 C    0.995     4 C    0.969    14 C    0.957
                            31 C    0.941
     4   6 C    3.947 --    13 C    1.407     5 C    1.368     3 C    0.969
     5   6 C    3.976 --     6 C    1.487     4 C    1.368    34 H    0.963
     6   6 C    3.955 --     5 C    1.487     9 C    1.317    37 H    0.962
     7   8 O    2.077 --     8 C    1.988
     8   6 C    3.864 --     7 O    1.988    36 H    0.938    35 H    0.937
     9   6 C    3.911 --    12 C    1.356     6 C    1.317    10 O    1.097
    10   8 O    2.248 --     9 C    1.097    11 C    0.978
    11   6 C    3.934 --    10 O    0.978    39 H    0.978    38 H    0.974
                            40 H    0.974
    12   6 C    3.959 --    13 C    1.435     9 C    1.356    41 H    0.965
    13   6 C    3.974 --    12 C    1.435     4 C    1.407    42 H    0.962
    14   6 C    3.971 --    15 C    0.980    44 H    0.972    43 H    0.968
                             3 C    0.957
    15   6 C    3.985 --    16 C    1.061    14 C    0.980    45 H    0.961
                            46 H    0.925
    16   6 C    3.606 --    17 N    1.411    15 C    1.061    48 H    0.957
    17   7 N    3.488 --    16 C    1.411    30 C    0.998    18 C    0.988
    18   6 C    3.955 --    17 N    0.988    50 H    0.968    19 C    0.966
                            49 H    0.964
    19   6 C    3.976 --    20 C    1.008    52 H    0.972    51 H    0.971
                            18 C    0.966
    20   6 C    3.943 --    21 C    1.408    29 C    1.381    19 C    1.008
    21   6 C    3.949 --    22 C    1.417    20 C    1.408    53 H    0.968
    22   6 C    3.959 --    21 C    1.417    23 C    1.383    54 H    0.963
    23   6 C    3.894 --    22 C    1.383    26 C    1.218    24 O    1.111
    24   8 O    2.255 --    23 C    1.111    25 C    0.976
    25   6 C    3.928 --    57 H    0.977    24 O    0.976    55 H    0.972
                            56 H    0.972
    26   6 C    3.897 --    29 C    1.394    23 C    1.218    27 O    1.105
    27   8 O    2.255 --    26 C    1.105    28 C    0.978
    28   6 C    3.931 --    27 O    0.978    58 H    0.977    59 H    0.973
                            60 H    0.973
    29   6 C    3.958 --    26 C    1.394    20 C    1.381    61 H    0.962
    30   6 C    3.956 --    17 N    0.998    64 H    0.977    62 H    0.966
                            63 H    0.961
    31   6 C    3.970 --    33 C    1.009    32 C    1.008    65 H    0.959
                             3 C    0.941
    32   6 C    3.977 --    31 C    1.008    67 H    0.981    68 H    0.981
                            66 H    0.974
    33   6 C    3.981 --    31 C    1.009    70 H    0.983    71 H    0.980
                            69 H    0.976
    34   1 H    0.996 --     5 C    0.963
    35   1 H    0.986 --     8 C    0.937
    36   1 H    0.986 --     8 C    0.938
    37   1 H    0.992 --     6 C    0.962
    38   1 H    0.993 --    11 C    0.974
    39   1 H    0.993 --    11 C    0.978
    40   1 H    0.994 --    11 C    0.974
    41   1 H    0.997 --    12 C    0.965
    42   1 H    0.998 --    13 C    0.962
    43   1 H    0.994 --    14 C    0.968
    44   1 H    0.996 --    14 C    0.972
    45   1 H    0.995 --    15 C    0.961
    46   1 H    0.970 --    15 C    0.925
    47   1 H    0.986 --     2 C    0.900
    48   1 H    0.995 --    16 C    0.957
    49   1 H    0.991 --    18 C    0.964
    50   1 H    0.994 --    18 C    0.968
    51   1 H    0.995 --    19 C    0.971
    52   1 H    0.996 --    19 C    0.972
    53   1 H    0.997 --    21 C    0.968
    54   1 H    0.995 --    22 C    0.963
    55   1 H    0.991 --    25 C    0.972
    56   1 H    0.991 --    25 C    0.972
    57   1 H    0.992 --    25 C    0.977
    58   1 H    0.993 --    28 C    0.977
    59   1 H    0.993 --    28 C    0.973
    60   1 H    0.993 --    28 C    0.973
    61   1 H    0.996 --    29 C    0.962
    62   1 H    0.985 --    30 C    0.966
    63   1 H    0.987 --    30 C    0.961
    64   1 H    0.993 --    30 C    0.977
    65   1 H    0.991 --    31 C    0.959
    66   1 H    0.990 --    32 C    0.974
    67   1 H    0.996 --    32 C    0.981
    68   1 H    0.994 --    32 C    0.981
    69   1 H    0.993 --    33 C    0.976
    70   1 H    0.997 --    33 C    0.983
    71   1 H    0.993 --    33 C    0.980
    72   1 H    0.970 --     1 N    0.941
 ---------------------------------------------------------------------------

molecular dipole:
                 x           y           z       tot (Debye)
 q only:        0.600      -0.029      -0.530
   full:        0.677      -0.198      -0.598       2.349

           -------------------------------------------------
          | TOTAL ENERGY              -99.357507569076 Eh   |
          | GRADIENT NORM               0.003119626297 Eh/α |
          | HOMO-LUMO GAP               1.676668333316 eV   |
           -------------------------------------------------

 * finished run on 2024/04/06 at 11:12:31.617
