   * xtb version 6.6.1 (8d0f1dd) compiled by 'conda@1efc2f54142f' on 2023-08-01
          program call               : xtb struc.xyz --opt loose --input .xc1 --gfn2

   ID    Z sym.   atoms
    1    6 C      1, 3, 5-7, 10, 11, 14
    2    7 N      2, 4, 9, 13
    3    8 O      8, 12
    4    1 H      15-25
constraining bond 5 23 to    3.7133300 Å, actual value:    2.7817644 Å

          :  Hamiltonian                  GFN2-xTB          :
 * total energy  :   -43.8095610 Eh     change       -0.2401990E-09 Eh
 * total energy  :   -47.0784072 Eh     change       -0.3268846E+01 Eh
 * total energy  :   -52.1330847 Eh     change       -0.5054678E+01 Eh
 * total energy  :   -58.7004726 Eh     change       -0.6567388E+01 Eh
 * total energy  :   -45.6179583 Eh     change        0.1308251E+02 Eh
 * total energy  :   -56.3136062 Eh     change       -0.1069565E+02 Eh
 * total energy  :   -56.6696837 Eh     change       -0.3560775E+00 Eh
 * total energy  :   -59.0451729 Eh     change       -0.2375489E+01 Eh
 * total energy  :   -56.5150463 Eh     change        0.2530127E+01 Eh
 * total energy  :   -59.4082775 Eh     change       -0.2893231E+01 Eh
 * total energy  :   -59.7570963 Eh     change       -0.1726273E-03 Eh
 * total energy  :   -59.7571637 Eh     change       -0.6735222E-04 Eh
 * total energy  :   -59.7572108 Eh     change       -0.4706073E-04 Eh
 * total energy  :   -59.7572411 Eh     change       -0.3033060E-04 Eh
 * total energy  :   -59.7572792 Eh     change       -0.3812487E-04 Eh
 * total energy  :   -59.7572801 Eh     change       -0.8733551E-06 Eh
 * total energy  :   -59.7569975 Eh     change        0.2825466E-03 Eh
 * total energy  :   -59.7573521 Eh     change       -0.3545947E-03 Eh
 * total energy  :   -59.7573750 Eh     change       -0.2283196E-04 Eh
   *** GEOMETRY OPTIMIZATION CONVERGED AFTER 97 ITERATIONS ***

 final structure:
================
25
 xtb: 6.6.1 (8d0f1dd)
C            2.85618826361990        0.70113459434978        0.46273571896995
N            1.82675366635723       -0.23085390706755        0.05778748671821
C            2.12767675432077       -1.42277690098665       -0.44179144673323
N            1.16433649131544       -2.27878908380755       -0.88534890468366
C           -0.26686138795622       -2.14611056674397       -0.63530327423690
C            0.50425184903935        0.15407714317304        0.21292311680926
C           -0.05272272488801        1.44938567156659        0.06269687508822
O            0.46256376971496        2.54699524653427        0.06747236360930
N           -1.45807343272958        1.23963130685856       -0.09166103036668
C           -2.38716868468868        2.33859794182182       -0.22079547744973
C           -1.81498296496484       -0.04563237533853       -0.13352787118035
O           -2.84637713582697       -0.63075687506200       -0.26083502487688
N           -0.51761672317065       -0.82704991404456        0.07036772714829
C           -0.59247874461339       -2.04958359931633        0.85635548001483
H            3.11004281690929        0.55397322952345        1.51391237905420
H            3.74630056689058        0.55971862185156       -0.14505370388002
H            2.48265451198533        1.71740065624834        0.33620043507878
H            3.15841103492996       -1.70750400834642       -0.55340401878886
H           -1.83505691399494        3.19582922808975       -0.60461161437254
H           -3.19134167056906        2.06095501672349       -0.89928619349331
H           -2.80801393350942        2.59388096857757        0.75301951119814
H            0.17926900297831       -2.19581796119797        1.59934829744194
H           -0.54267989130833       -2.30110697583824       -0.91805168065264
H           -1.59684130149129       -2.32240552410685        1.16038961242711
H            1.45219829574616       -3.13495339186333       -1.33236714494348

          :  Hamiltonian                  GFN2-xTB          :
         :: total energy             -59.757374972576 Eh    ::
         :: gradient norm              0.002741873749 Eh/a0 ::
         :: HOMO-LUMO gap              2.400108272437 eV    ::
         :: SCC energy               -42.684706175824 Eh    ::
         :: -> dispersion             -0.023262079168 Eh    ::
         :: repulsion energy           2.242307483669 Eh    ::

    * Orbital Energies and Occupations

         #    Occupation            Energy/Eh            Energy/eV
      -------------------------------------------------------------
         1        2.0000           -0.9273568             -25.2347
       ...           ...                  ...                  ...
        25        1.9997           -0.6771723             -18.4268
        26        1.9996           -0.6750391             -18.3687
        27        1.9995           -0.6683696             -18.1873
        28        1.9993           -0.6594505             -17.9446
        29        1.9983           -0.6391465             -17.3921
        30        1.9982           -0.6380737             -17.3629
        31        1.9977           -0.6325707             -17.2131
        32        1.9951           -0.6142329             -16.7141
        33        1.9937           -0.6084397             -16.5565
        34        1.9890           -0.5951595             -16.1951
        35        1.9680           -0.5694871             -15.4965
        36        1.9518           -0.5595654             -15.2265
        37        1.7129           -0.5140919             -13.9892 (HOMO)
        38        0.2541           -0.4258896             -11.5890 (LUMO)
        39        0.1373           -0.4097291             -11.1493
        40        0.0046           -0.3275850              -8.9140
        41        0.0018           -0.3054112              -8.3107
        42        0.0004           -0.2692936              -7.3279
        43        0.0001           -0.2331344              -6.3439
        44        0.0000           -0.1857187              -5.0537
        45        0.0000           -0.1608981              -4.3783
        46        0.0000           -0.1438485              -3.9143
        47        0.0000           -0.1022121              -2.7813
        48                         -0.0684579              -1.8628
       ...                                ...                  ...
        67                         10.6143062             288.8300
      -------------------------------------------------------------
                  HL-Gap            0.0882024 Eh            2.4001 eV

     #   Z          covCN         q      C6AA      α(0)
     1   6 C        3.705    -0.092    22.415     6.768
     2   7 N        2.735     0.048    20.401     6.708
     3   6 C        2.791     0.046    26.954     8.504
     4   7 N        2.690    -0.147    24.177     7.303
     5   6 C        3.718     0.055    19.761     6.350
     6   6 C        2.910    -0.035    28.879     8.812
     7   6 C        2.810     0.247    22.868     7.835
     8   8 O        0.857    -0.372    21.123     6.162
     9   7 N        2.781    -0.076    22.714     7.078
    10   6 C        3.692    -0.058    21.798     6.680
    11   6 C        2.750     0.293    22.028     7.685
    12   8 O        0.856    -0.339    20.492     6.069
    13   7 N        3.656     0.059    20.213     6.677
    14   6 C        3.741    -0.038    21.327     6.589
    15   1 H        0.924     0.102     1.766     2.078
    16   1 H        0.925     0.099     1.798     2.097
    17   1 H        0.925     0.135     1.501     1.916
    18   1 H        0.926     0.108     1.712     2.046
    19   1 H        0.925     0.118     1.633     1.998
    20   1 H        0.925     0.101     1.777     2.085
    21   1 H        0.924     0.100     1.783     2.088
    22   1 H        0.925     0.113     1.670     2.021
    23   1 H        0.938     0.178     1.219     1.726
    24   1 H        0.925     0.133     1.511     1.922
    25   1 H        0.860     0.222     1.001     1.567

Wiberg/Mayer (AO) data.
largest (>0.10) Wiberg bond orders for each atom

     #   Z sym  total        # sym  WBO       # sym  WBO       # sym  WBO
 ---------------------------------------------------------------------------
     1   6 C    3.909 --     2 N    0.978    16 H    0.971    15 H    0.956
                            17 H    0.951
     2   7 N    3.557 --     3 C    1.345     6 C    1.089     1 C    0.978
     3   6 C    3.679 --     2 N    1.345     4 N    1.213    18 H    0.949
     4   7 N    3.335 --     3 C    1.213     5 C    1.017    25 H    0.923
     5   6 C    3.820 --     4 N    1.017    23 H    0.953    14 C    0.928
                            13 N    0.840
     6   6 C    3.553 --     7 C    1.196     2 N    1.089    13 N    0.975
                             8 O    0.113
     7   6 C    3.902 --     8 O    1.626     6 C    1.196     9 N    0.980
     8   8 O    1.931 --     7 C    1.626     6 C    0.113
     9   7 N    3.525 --    11 C    1.249     7 C    0.980    10 C    0.972
                            12 O    0.172
    10   6 C    3.903 --     9 N    0.972    20 H    0.967    19 H    0.962
                            21 H    0.956
    11   6 C    3.859 --    12 O    1.724     9 N    1.249    13 N    0.795
    12   8 O    2.066 --    11 C    1.724     9 N    0.172
    13   7 N    3.697 --     6 C    0.975    14 C    0.895     5 C    0.840
                            11 C    0.795
    14   6 C    3.835 --    22 H    0.966    24 H    0.957     5 C    0.928
                            13 N    0.895
    15   1 H    0.978 --     1 C    0.956
    16   1 H    0.987 --     1 C    0.971
    17   1 H    0.977 --     1 C    0.951
    18   1 H    0.987 --     3 C    0.949
    19   1 H    0.980 --    10 C    0.962
    20   1 H    0.983 --    10 C    0.967
    21   1 H    0.978 --    10 C    0.956
    22   1 H    0.986 --    14 C    0.966
    23   1 H    0.968 --     5 C    0.953
    24   1 H    0.980 --    14 C    0.957
    25   1 H    0.949 --     4 N    0.923
 ---------------------------------------------------------------------------

molecular dipole:
                 x           y           z       tot (Debye)
 q only:        1.480      -2.229      -0.049
   full:        1.617      -2.595      -0.104       7.775

           -------------------------------------------------
          | TOTAL ENERGY              -59.757374972576 Eh   |
          | GRADIENT NORM               0.002741873749 Eh/α |
          | HOMO-LUMO GAP               2.400108272437 eV   |
           -------------------------------------------------

 * finished run on 2024/06/05 at 19:58:59.763
