   * xtb version 6.6.1 (8d0f1dd) compiled by 'conda@1efc2f54142f' on 2023-08-01
          program call               : xtb xtbopt.xyz --opt crude --input .xc2 --gfn2

   ID    Z sym.   atoms
    1    6 C      1, 3, 5-7, 10, 11, 14
    2    7 N      2, 4, 9, 13
    3    8 O      8, 12
    4    1 H      15-25
########################################################################
[WARNING] Please study the warnings concerning your input carefully
-1- readin_getIntValue: could not parse ''
########################################################################

          :  Hamiltonian                  GFN2-xTB          :
 * total energy  :   -40.4422124 Eh     change       -0.7105427E-13 Eh
 * total energy  :   -42.1465258 Eh     change       -0.1704313E+01 Eh
 * total energy  :   -42.1676742 Eh     change       -0.2114837E-01 Eh
 * total energy  :   -42.1723175 Eh     change       -0.4643332E-02 Eh
 * total energy  :   -42.1729912 Eh     change       -0.6736879E-03 Eh
 * total energy  :   -42.1735526 Eh     change       -0.5614657E-03 Eh
 * total energy  :   -42.1740033 Eh     change       -0.4506612E-03 Eh
 * total energy  :   -42.1743580 Eh     change       -0.3547145E-03 Eh
 * total energy  :   -42.1745633 Eh     change       -0.2052505E-03 Eh
   *** GEOMETRY OPTIMIZATION CONVERGED AFTER 9 ITERATIONS ***

 final structure:
================
25
 xtb: 6.6.1 (8d0f1dd)
C            2.87263054227890        0.71437234701436        0.46271229274682
N            1.84299522752010       -0.21772338889080        0.06381401462153
C            2.12913620215401       -1.41020050877399       -0.44729878162273
N            1.15483764846979       -2.24713737425283       -0.91742848377312
C           -0.19879273912357       -2.10899056142398       -0.52837326329212
C            0.52311100372527        0.16791062103167        0.23635011257449
C           -0.04447103269510        1.45944806521643        0.10171582519776
O            0.45923747373511        2.56204891607273        0.12696164998855
N           -1.44648119706906        1.23702706058141       -0.07491495678858
C           -2.38473592349868        2.32631551431387       -0.21839796646998
C           -1.78364735704755       -0.05325211440419       -0.15665122622469
O           -2.80276730298242       -0.64368202842264       -0.35337955692923
N           -0.49839307994808       -0.81829010137647        0.08959883943601
C           -0.55696021528747       -2.03358806832509        0.91104997618674
H            3.09195913272657        0.60685862208596        1.52710481436620
H            3.77909621728215        0.53826127815381       -0.11143124961177
H            2.51550782864031        1.73051082726336        0.28834172841602
H            3.15598822276021       -1.69903691711239       -0.57980952564854
H           -1.83088789876319        3.19618418037434       -0.57033714158777
H           -3.16161054588535        2.04883183003440       -0.92844601596345
H           -2.84167831043069        2.56130107174067        0.74451839872523
H            0.21778314501192       -2.14348776045393        1.65848985356553
H           -0.91702520413887       -2.49466389098934       -1.23756309976746
H           -1.55598143550335       -2.31600849847021        1.22305069665344
H            1.44158111216493       -3.14477057938890       -1.27850531689890

          :  Hamiltonian                  GFN2-xTB          :
         :: total energy             -42.174563267029 Eh    ::
         :: gradient norm              0.008285195425 Eh/a0 ::
         :: HOMO-LUMO gap              2.386079202141 eV    ::
         :: SCC energy               -42.675499118091 Eh    ::
         :: -> dispersion             -0.023269514090 Eh    ::
         :: repulsion energy           0.500745759199 Eh    ::

    * Orbital Energies and Occupations

         #    Occupation            Energy/Eh            Energy/eV
      -------------------------------------------------------------
         1        2.0000           -0.9170731             -24.9548
       ...           ...                  ...                  ...
        25        1.9997           -0.6759214             -18.3928
        26        1.9996           -0.6729711             -18.3125
        27        1.9995           -0.6656659             -18.1137
        28        1.9993           -0.6582092             -17.9108
        29        1.9983           -0.6379977             -17.3608
        30        1.9982           -0.6366468             -17.3240
        31        1.9979           -0.6322368             -17.2040
        32        1.9951           -0.6126917             -16.6722
        33        1.9938           -0.6069492             -16.5159
        34        1.9894           -0.5940074             -16.1638
        35        1.9686           -0.5680550             -15.4576
        36        1.9529           -0.5582339             -15.1903
        37        1.7184           -0.5127039             -13.9514 (HOMO)
        38        0.2640           -0.4250171             -11.5653 (LUMO)
        39        0.1210           -0.4046172             -11.0102
        40        0.0042           -0.3233513              -8.7988
        41        0.0007           -0.2818071              -7.6684
        42        0.0003           -0.2610695              -7.1041
        43        0.0000           -0.2000307              -5.4431
        44        0.0000           -0.1828897              -4.9767
        45        0.0000           -0.1594965              -4.3401
        46        0.0000           -0.1323108              -3.6004
        47        0.0000           -0.0874162              -2.3787
        48                         -0.0695771              -1.8933
       ...                                ...                  ...
        67                          0.5844169              15.9028
      -------------------------------------------------------------
                  HL-Gap            0.0876868 Eh            2.3861 eV

     #   Z          covCN         q      C6AA      α(0)
     1   6 C        3.705    -0.091    22.390     6.765
     2   7 N        2.734     0.050    20.368     6.703
     3   6 C        2.798     0.042    27.034     8.518
     4   7 N        2.686    -0.128    23.788     7.244
     5   6 C        3.734     0.095    19.098     6.237
     6   6 C        2.916    -0.035    28.860     8.809
     7   6 C        2.810     0.247    22.869     7.835
     8   8 O        0.857    -0.373    21.148     6.166
     9   7 N        2.783    -0.078    22.760     7.086
    10   6 C        3.692    -0.057    21.791     6.679
    11   6 C        2.752     0.294    22.013     7.683
    12   8 O        0.856    -0.345    20.616     6.088
    13   7 N        3.663     0.065    20.109     6.660
    14   6 C        3.739    -0.036    21.291     6.584
    15   1 H        0.924     0.102     1.765     2.078
    16   1 H        0.925     0.098     1.803     2.100
    17   1 H        0.924     0.134     1.509     1.921
    18   1 H        0.926     0.106     1.729     2.056
    19   1 H        0.925     0.117     1.636     2.000
    20   1 H        0.925     0.100     1.782     2.088
    21   1 H        0.924     0.100     1.789     2.092
    22   1 H        0.925     0.114     1.661     2.016
    23   1 H        0.926     0.125     1.575     1.962
    24   1 H        0.925     0.132     1.520     1.928
    25   1 H        0.860     0.222     1.000     1.567

Wiberg/Mayer (AO) data.
largest (>0.10) Wiberg bond orders for each atom

     #   Z sym  total        # sym  WBO       # sym  WBO       # sym  WBO
 ---------------------------------------------------------------------------
     1   6 C    3.911 --     2 N    0.979    16 H    0.972    15 H    0.956
                            17 H    0.951
     2   7 N    3.557 --     3 C    1.343     6 C    1.093     1 C    0.979
     3   6 C    3.666 --     2 N    1.343     4 N    1.195    18 H    0.951
     4   7 N    3.333 --     3 C    1.195     5 C    1.038    25 H    0.921
     5   6 C    3.872 --     4 N    1.038    14 C    0.949    23 H    0.947
                            13 N    0.873
     6   6 C    3.551 --     7 C    1.201     2 N    1.093    13 N    0.962
                             8 O    0.115
     7   6 C    3.903 --     8 O    1.625     6 C    1.201     9 N    0.978
     8   8 O    1.929 --     7 C    1.625     6 C    0.115
     9   7 N    3.525 --    11 C    1.247     7 C    0.978    10 C    0.973
                            12 O    0.173
    10   6 C    3.904 --     9 N    0.973    20 H    0.967    19 H    0.963
                            21 H    0.957
    11   6 C    3.860 --    12 O    1.715     9 N    1.247    13 N    0.806
    12   8 O    2.056 --    11 C    1.715     9 N    0.173
    13   7 N    3.701 --     6 C    0.962     5 C    0.873    14 C    0.870
                            11 C    0.806
    14   6 C    3.835 --    22 H    0.964    24 H    0.958     5 C    0.949
                            13 N    0.870
    15   1 H    0.978 --     1 C    0.956
    16   1 H    0.987 --     1 C    0.972
    17   1 H    0.977 --     1 C    0.951
    18   1 H    0.987 --     3 C    0.951
    19   1 H    0.980 --    10 C    0.963
    20   1 H    0.983 --    10 C    0.967
    21   1 H    0.978 --    10 C    0.957
    22   1 H    0.986 --    14 C    0.964
    23   1 H    0.983 --     5 C    0.947
    24   1 H    0.980 --    14 C    0.958
    25   1 H    0.949 --     4 N    0.921
 ---------------------------------------------------------------------------

molecular dipole:
                 x           y           z       tot (Debye)
 q only:        1.517      -2.290      -0.008
   full:        1.583      -2.678      -0.038       7.907

           -------------------------------------------------
          | TOTAL ENERGY              -42.174563267029 Eh   |
          | GRADIENT NORM               0.008285195425 Eh/α |
          | HOMO-LUMO GAP               2.386079202141 eV   |
           -------------------------------------------------

 * finished run on 2024/06/05 at 19:59:00.165
