   * xtb version 6.6.1 (8d0f1dd) compiled by 'conda@1efc2f54142f' on 2023-08-01
          program call               : xtb xtbopt.xyz --opt crude --input .xc2 --gfn2

   ID    Z sym.   atoms
    1    6 C      1, 3, 5-7, 10, 11, 14
    2    7 N      2, 4, 9, 13
    3    8 O      8, 12
    4    1 H      15-25
########################################################################
[WARNING] Please study the warnings concerning your input carefully
-1- readin_getIntValue: could not parse ''
########################################################################

          :  Hamiltonian                  GFN2-xTB          :
 * total energy  :   -42.2112364 Eh     change        0.4263256E-13 Eh
 * total energy  :   -42.2132286 Eh     change       -0.1992168E-02 Eh
 * total energy  :   -42.2137749 Eh     change       -0.5462981E-03 Eh
 * total energy  :   -42.2138274 Eh     change       -0.5250320E-04 Eh
   *** GEOMETRY OPTIMIZATION CONVERGED AFTER 4 ITERATIONS ***

 final structure:
================
25
 xtb: 6.6.1 (8d0f1dd)
C            3.69581648705442        0.82142456473362       -0.36964127482128
N            2.60563828480580       -0.09314037453537       -0.18367303306605
C            2.67126533478174       -1.41139670071448       -0.05259791906484
N            1.42200045049158       -1.92233219767997        0.09548863299675
C            0.53547800178193       -0.88740955111677        0.05436183596578
C            1.28040276201781        0.27222547514415       -0.12122546028568
C            0.63922265429449        1.57268196909856       -0.17761874129105
O            1.16081572052612        2.64011655068671       -0.29466205593394
N           -2.72033726398550        0.32944455462951        0.15313218361965
C           -3.56812082837096        1.47311358723515        0.09810769319023
C           -1.47155284307412        0.33075083377526        0.07772207550020
O           -0.72651038967226        1.46562292504983       -0.07090153973111
N           -0.80271596114430       -0.90586291297054        0.14840798313953
C           -1.55025114037563       -2.12976074339738        0.34707766789979
H            3.69045894826216        1.57076902337046        0.42304648159877
H            4.63869718635605        0.28016132297664       -0.36212858109345
H            3.57983081099506        1.34919034469494       -1.31745772067204
H            3.56845539772777       -1.99683306948165       -0.06090744708401
H           -3.03492262472279        2.42024646421329        0.19861428317950
H           -4.10095946744551        1.45399321999661       -0.85388725266385
H           -4.30545460770564        1.36837535830731        0.89442372377949
H           -1.38768204826489       -2.51881746809537        1.35323441319794
H           -1.25856937885090       -2.87312123961957       -0.39437988141761
H           -2.60429190767635       -1.89132424983394        0.22550746697516
H            1.20371793629318       -2.89987914486681        0.22112808398245

          :  Hamiltonian                  GFN2-xTB          :
         :: total energy             -42.213827364424 Eh    ::
         :: gradient norm              0.002108273849 Eh/a0 ::
         :: HOMO-LUMO gap              2.458446157833 eV    ::
         :: SCC energy               -42.741030383332 Eh    ::
         :: -> dispersion             -0.021847392628 Eh    ::
         :: repulsion energy           0.527165408446 Eh    ::

    * Orbital Energies and Occupations

         #    Occupation            Energy/Eh            Energy/eV
      -------------------------------------------------------------
         1        2.0000           -0.9120022             -24.8168
       ...           ...                  ...                  ...
        25        2.0000           -0.6627177             -18.0335
        26        2.0000           -0.6536193             -17.7859
        27        2.0000           -0.6444676             -17.5369
        28        1.9999           -0.6385347             -17.3754
        29        1.9999           -0.6267915             -17.0559
        30        1.9998           -0.6241945             -16.9852
        31        1.9998           -0.6194187             -16.8552
        32        1.9997           -0.6151703             -16.7396
        33        1.9994           -0.6040136             -16.4360
        34        1.9962           -0.5744789             -15.6324
        35        1.9954           -0.5716236             -15.5547
        36        1.9460           -0.5320851             -14.4788
        37        1.9089           -0.5234949             -14.2450 (HOMO)
        38        0.1304           -0.4331487             -11.7866 (LUMO)
        39        0.0227           -0.4045882             -11.0094
        40        0.0019           -0.3650202              -9.9327
        41        0.0000           -0.2900919              -7.8938
        42                         -0.2008408              -5.4652
        43                         -0.1924326              -5.2364
        44                         -0.1486422              -4.0448
        45                         -0.1319917              -3.5917
        46                         -0.0876816              -2.3859
        47                         -0.0562405              -1.5304
        48                         -0.0419855              -1.1425
       ...                                ...                  ...
        67                          0.5633824              15.3304
      -------------------------------------------------------------
                  HL-Gap            0.0903462 Eh            2.4584 eV

     #   Z          covCN         q      C6AA      α(0)
     1   6 C        3.692    -0.089    22.383     6.770
     2   7 N        2.828     0.081    19.827     6.613
     3   6 C        3.052     0.049    26.855     8.499
     4   7 N        2.794    -0.066    22.507     7.046
     5   6 C        3.042     0.123    25.271     8.245
     6   6 C        3.111    -0.035    28.716     8.779
     7   6 C        2.700     0.352    21.027     7.505
     8   8 O        0.857    -0.324    20.213     6.028
     9   7 N        1.835    -0.217    26.568     7.638
    10   6 C        3.701    -0.039    21.441     6.621
    11   6 C        2.736     0.275    22.342     7.739
    12   8 O        1.709    -0.241    17.996     5.728
    13   7 N        2.748    -0.044    22.090     6.980
    14   6 C        3.696    -0.083    22.258     6.749
    15   1 H        0.924     0.123     1.591     1.972
    16   1 H        0.925     0.103     1.760     2.075
    17   1 H        0.924     0.121     1.605     1.981
    18   1 H        0.926     0.123     1.590     1.972
    19   1 H        0.924     0.071     2.072     2.251
    20   1 H        0.924     0.094     1.843     2.123
    21   1 H        0.924     0.095     1.833     2.117
    22   1 H        0.924     0.089     1.891     2.151
    23   1 H        0.925     0.084     1.937     2.176
    24   1 H        0.925     0.127     1.561     1.954
    25   1 H        0.860     0.228     0.973     1.545

Wiberg/Mayer (AO) data.
largest (>0.10) Wiberg bond orders for each atom

     #   Z sym  total        # sym  WBO       # sym  WBO       # sym  WBO
 ---------------------------------------------------------------------------
     1   6 C    3.922 --     2 N    0.991    16 H    0.975    15 H    0.954
                            17 H    0.954
     2   7 N    3.668 --     3 C    1.392     6 C    1.152     1 C    0.991
     3   6 C    3.831 --     2 N    1.392     4 N    1.253    18 H    0.953
     4   7 N    3.575 --     3 C    1.253     5 C    1.191    25 H    0.919
     5   6 C    3.940 --     6 C    1.339    13 N    1.225     4 N    1.191
     6   6 C    3.894 --     5 C    1.339     2 N    1.152     7 C    1.063
     7   6 C    3.903 --     8 O    1.760     6 C    1.063    12 O    1.006
     8   8 O    2.077 --     7 C    1.760    12 O    0.136
     9   7 N    3.040 --    11 C    1.729    10 C    1.031    12 O    0.108
    10   6 C    3.932 --     9 N    1.031    19 H    0.960    21 H    0.953
                            20 H    0.945
    11   6 C    3.915 --     9 N    1.729    13 N    1.040    12 O    1.016
    12   8 O    2.358 --    11 C    1.016     7 C    1.006     8 O    0.136
                             9 N    0.108
    13   7 N    3.541 --     5 C    1.225    11 C    1.040    14 C    0.975
    14   6 C    3.923 --    13 N    0.975    23 H    0.972    22 H    0.969
                            24 H    0.963
    15   1 H    0.982 --     1 C    0.954
    16   1 H    0.989 --     1 C    0.975
    17   1 H    0.982 --     1 C    0.954
    18   1 H    0.984 --     3 C    0.953
    19   1 H    0.973 --    10 C    0.960
    20   1 H    0.979 --    10 C    0.945
    21   1 H    0.977 --    10 C    0.953
    22   1 H    0.988 --    14 C    0.969
    23   1 H    0.990 --    14 C    0.972
    24   1 H    0.983 --    14 C    0.963
    25   1 H    0.947 --     4 N    0.919
 ---------------------------------------------------------------------------

molecular dipole:
                 x           y           z       tot (Debye)
 q only:        1.824      -2.660       0.098
   full:        2.103      -2.950       0.110       9.211

           -------------------------------------------------
          | TOTAL ENERGY              -42.213827364424 Eh   |
          | GRADIENT NORM               0.002108273849 Eh/α |
          | HOMO-LUMO GAP               2.458446157833 eV   |
           -------------------------------------------------

 * finished run on 2024/06/05 at 19:58:25.738
