   * xtb version 6.6.1 (8d0f1dd) compiled by 'conda@1efc2f54142f' on 2023-08-01
          program call               : xtb struc.xyz --opt loose --input .xc1 --gfn2

   ID    Z sym.   atoms
    1    7 N      1, 17
    2    6 C      2-6, 8, 9, 11-16, 18-23, 25, 26, 28-33
    3    8 O      7, 10, 24, 27
    4    1 H      34-72
constraining bond 58 60 to    3.2800000 Å, actual value:    1.7798473 Å

          :  Hamiltonian                  GFN2-xTB          :
 * total energy  :   -99.0023044 Eh     change       -0.4035485E-08 Eh
 * total energy  :   -99.1624563 Eh     change       -0.1601519E+00 Eh
 * total energy  :   -99.2362960 Eh     change       -0.7383972E-01 Eh
 * total energy  :   -99.2542764 Eh     change       -0.1798038E-01 Eh
 * total energy  :   -99.2572462 Eh     change       -0.2969809E-02 Eh
 * total energy  :   -99.2580621 Eh     change       -0.8158267E-03 Eh
 * total energy  :   -99.2588423 Eh     change       -0.7802007E-03 Eh
 * total energy  :   -99.2593898 Eh     change       -0.5475292E-03 Eh
 * total energy  :   -99.2603287 Eh     change       -0.9389543E-03 Eh
 * total energy  :   -99.2624319 Eh     change       -0.2103162E-02 Eh
 * total energy  :   -99.3331622 Eh     change       -0.6768074E-03 Eh
 * total energy  :   -99.3336920 Eh     change       -0.5298631E-03 Eh
 * total energy  :   -99.3340829 Eh     change       -0.3908256E-03 Eh
 * total energy  :   -99.3343859 Eh     change       -0.3029905E-03 Eh
 * total energy  :   -99.3345266 Eh     change       -0.1407711E-03 Eh
 * total energy  :   -99.3347184 Eh     change       -0.1917281E-03 Eh
 * total energy  :   -99.3347983 Eh     change       -0.7994742E-04 Eh
 * total energy  :   -99.3348892 Eh     change       -0.9093689E-04 Eh
 * total energy  :   -99.3349219 Eh     change       -0.3269991E-04 Eh
   *** GEOMETRY OPTIMIZATION CONVERGED AFTER 48 ITERATIONS ***

 final structure:
================
72
 xtb: 6.6.1 (8d0f1dd)
N           -1.86014485996231        2.83120022215403        2.21171911974537
C           -1.81325514723130        2.12194911855344        1.18423698688831
C           -2.95915191052303        1.91036066245457        0.23452581448883
C           -3.43218921972029        0.46711634050744        0.32318779335986
C           -4.36157966195479       -0.01249341529160       -0.60214954538128
C           -4.83966097377181       -1.31026138387358       -0.54288797253564
O           -5.74619998584123       -1.84490545657010       -1.38916988535665
C           -6.36277720863103       -1.01630369856422       -2.34618590748396
C           -4.36663424265342       -2.18411340547055        0.47180126057023
O           -4.87926163006380       -3.43249171370820        0.44905342558917
C           -4.52616561783230       -4.33478468532958        1.47070648962305
C           -3.44495559343039       -1.70272565803974        1.38689322789033
C           -2.98706087029070       -0.39237086705163        1.31445646828781
C           -2.39852841804980        2.19539908036143       -1.18391582073149
C           -1.47178933608694        1.09750499341111       -1.73861942299805
C           -0.14391494480053        1.06193318426816       -1.08643786773665
N            0.49283360153825       -0.03955880206835       -0.68888190316423
C            1.85950845458263        0.02915044378632       -0.23670976725751
C            2.85488897073363       -0.46191205379698       -1.31354338995020
C            4.26622879434561       -0.23003810673155       -0.86743510023359
C            4.92918376967228        0.91519005441279       -1.15000644706010
C            6.23557961490868        1.19241464285854       -0.68681602288204
C            6.93925304622154        0.25076214373162        0.04286266969025
O            8.20138006215957        0.38098069234791        0.49985269620705
C            8.89692515365753        1.58185915798958        0.24156134522142
C            6.31900744622995       -0.98394831183282        0.33374844125841
O            7.04946359053898       -1.98043006811437        0.79725960077871
C            6.55142668556147       -3.14366973753408        1.10726227951466
C            4.89544194283922       -1.27269230918278       -0.00220520113808
C           -0.12197405618106       -1.34357998025333       -0.75406639493847
C           -4.17480177372274        2.84096650544023        0.52093893130616
C           -4.81876413457352        2.52024067564175        1.86785581794565
C           -3.82318627435662        4.32480829698981        0.45885585817962
H           -4.72753276728934        0.64638506578283       -1.37170306624351
H           -6.87105673752480       -0.16957594085578       -1.87500661386941
H           -7.09768099895001       -1.64416494066015       -2.84599452819669
H           -5.64304970242149       -0.64767539434912       -3.08460548568068
H           -4.80138628052816       -3.95116194748926        2.45768176281548
H           -5.09062533594657       -5.24245719788981        1.26643759547729
H           -3.45548536828629       -4.56332006266292        1.45298599270739
H           -3.08282891373504       -2.33724958166021        2.17956923261995
H           -2.29465524370371       -0.04505261022087        2.06569388209809
H           -3.23439015292110        2.31001291658820       -1.87322114813031
H           -1.85623089792385        3.14147794203749       -1.16428936795046
H           -1.97362598069366        0.13325653600696       -1.68171903919569
H           -1.31286557677674        1.32850176044070       -2.80024918487483
H           -0.89910285300237        1.60252663959831        0.83620222709465
H            0.42117424186264        1.98140925264968       -1.05502203421289
H            1.96487607751675       -0.57898532306195        0.66626754897819
H            2.10383370925559        1.06293696483509        0.01590449747720
H            2.66241122439199        0.09373683145079       -2.23285811402186
H            2.68544765375865       -1.52211628762316       -1.50811162842324
H            4.45364389731121        1.66550039887299       -1.76481456491830
H            6.68294507311973        2.13465964134743       -0.94882260862894
H            8.38636621950871        2.44065250502788        0.68759684160539
H            9.02414858592207        1.74685914783974       -0.83208062057283
H            9.87243236659063        1.45914845685239        0.70739611628758
H            7.26123488717451       -3.92532452094529        1.23476644450163
H            5.50285381856337       -3.34877843099721        1.20299830158696
H            4.92482241785656       -2.28089978011623       -0.46572519031939
H            4.29562655310918       -1.39169482358695        0.91699590394520
H           -0.26453861522826       -1.66216483250419       -1.78906326602390
H           -1.09263926609495       -1.33391884870234       -0.25218881756009
H            0.51718333588102       -2.06674406840873       -0.25394662477959
H           -4.91380655109507        2.63616336681704       -0.26206261315634
H           -4.12240443326238        2.73212249927421        2.67258599234501
H           -5.11554721848166        1.47572091324384        1.92310386319513
H           -5.70437831591861        3.13539131015926        2.00374497347995
H           -3.07497307173401        4.56655220910191        1.20725547259161
H           -3.45693597585922        4.61507383769930       -0.52234530427245
H           -4.71427698605447        4.91085235173193        0.66801588624697
H           -1.01159249469760        2.92092700538213        2.76214455088090

          :  Hamiltonian                  GFN2-xTB          :
         :: total energy             -99.334921963572 Eh    ::
         :: gradient norm              0.001926103836 Eh/a0 ::
         :: HOMO-LUMO gap              1.152199257248 eV    ::
         :: SCC energy              -100.699883464296 Eh    ::
         :: -> dispersion             -0.075330147119 Eh    ::
         :: repulsion energy           1.363337968975 Eh    ::

    * Orbital Energies and Occupations

         #    Occupation            Energy/Eh            Energy/eV
      -------------------------------------------------------------
         1        2.0000           -0.8496376             -23.1198
       ...           ...                  ...                  ...
        78        1.9990           -0.5292050             -14.4004
        79        1.9988           -0.5254584             -14.2985
        80        1.9986           -0.5234699             -14.2443
        81        1.9986           -0.5230065             -14.2317
        82        1.9979           -0.5172889             -14.0761
        83        1.9967           -0.5097458             -13.8709
        84        1.9961           -0.5071121             -13.7992
        85        1.9953           -0.5042665             -13.7218
        86        1.9840           -0.4847714             -13.1913
        87        1.9777           -0.4794980             -13.0478
        88        1.9474           -0.4656819             -12.6718
        89        1.8933           -0.4540283             -12.3547
        90        1.6095           -0.4309081             -11.7256 (HOMO)
        91        0.4427           -0.3885656             -10.5734 (LUMO)
        92        0.1417           -0.3677248             -10.0063
        93        0.0170           -0.3331026              -9.0642
        94        0.0042           -0.3108166              -8.4577
        95        0.0035           -0.3080139              -8.3815
        96        0.0034           -0.3075194              -8.3680
        97        0.0000           -0.2253945              -6.1333
        98        0.0000           -0.1848829              -5.0309
        99                         -0.1329852              -3.6187
       100                         -0.0727188              -1.9788
       101                         -0.0633998              -1.7252
       ...                                ...                  ...
       171                          0.5784845              15.7414
      -------------------------------------------------------------
                  HL-Gap            0.0423425 Eh            1.1522 eV

     #   Z          covCN         q      C6AA      α(0)
     1   7 N        1.773    -0.272    27.887     7.820
     2   6 C        2.827     0.101    25.757     8.316
     3   6 C        3.907     0.006    20.416     6.422
     4   6 C        2.974     0.002    27.983     8.677
     5   6 C        2.921    -0.080    30.007     8.983
     6   6 C        2.863     0.128    25.185     8.226
     7   8 O        1.706    -0.233    17.869     5.707
     8   6 C        3.645     0.029    20.428     6.496
     9   6 C        2.864     0.127    25.213     8.231
    10   8 O        1.706    -0.232    17.852     5.705
    11   6 C        3.645     0.028    20.432     6.496
    12   6 C        2.914    -0.076    29.886     8.964
    13   6 C        2.921    -0.054    29.344     8.883
    14   6 C        3.812    -0.064    21.723     6.634
    15   6 C        3.802    -0.068    21.805     6.648
    16   6 C        2.843     0.002    27.982     8.669
    17   7 N        2.729     0.003    21.205     6.839
    18   6 C        3.754    -0.015    20.906     6.520
    19   6 C        3.806    -0.072    21.880     6.659
    20   6 C        2.953    -0.012    28.318     8.728
    21   6 C        2.908    -0.044    29.093     8.844
    22   6 C        2.912    -0.082    30.048     8.989
    23   6 C        2.851     0.137    25.000     8.195
    24   8 O        1.706    -0.237    17.921     5.716
    25   6 C        3.645     0.025    20.483     6.504
    26   6 C        2.885     0.086    26.089     8.374
    27   8 O        1.711    -0.077    15.514     5.318
    28   6 C        2.760    -0.003    28.079     8.678
    29   6 C        3.809    -0.072    21.868     6.657
    30   6 C        3.699    -0.069    21.984     6.706
    31   6 C        3.853    -0.007    20.672     6.467
    32   6 C        3.756    -0.118    22.819     6.811
    33   6 C        3.755    -0.118    22.815     6.811
    34   1 H        0.926     0.051     2.309     2.376
    35   1 H        0.924     0.052     2.290     2.366
    36   1 H        0.925     0.079     1.984     2.203
    37   1 H        0.924     0.046     2.371     2.408
    38   1 H        0.924     0.053     2.278     2.361
    39   1 H        0.925     0.079     1.986     2.204
    40   1 H        0.924     0.046     2.374     2.410
    41   1 H        0.926     0.049     2.326     2.385
    42   1 H        0.926     0.037     2.494     2.470
    43   1 H        0.925     0.059     2.215     2.327
    44   1 H        0.924     0.052     2.296     2.369
    45   1 H        0.925     0.065     2.144     2.290
    46   1 H        0.923     0.076     2.020     2.223
    47   1 H        0.922     0.005     2.980     2.700
    48   1 H        0.926     0.065     2.139     2.287
    49   1 H        0.924     0.061     2.182     2.310
    50   1 H        0.924     0.067     2.124     2.279
    51   1 H        0.924     0.058     2.224     2.332
    52   1 H        0.924     0.055     2.262     2.352
    53   1 H        0.926     0.049     2.328     2.386
    54   1 H        0.926     0.058     2.220     2.330
    55   1 H        0.924     0.054     2.269     2.355
    56   1 H        0.924     0.056     2.247     2.344
    57   1 H        0.925     0.082     1.963     2.191
    58   1 H        0.927     0.083     1.950     2.184
    59   1 H        0.926     0.053     2.286     2.364
    60   1 H        0.922     0.067     2.124     2.279
    61   1 H        0.923     0.060     2.195     2.317
    62   1 H        0.924     0.074     2.042     2.235
    63   1 H        0.924     0.079     1.990     2.206
    64   1 H        0.925     0.076     2.023     2.224
    65   1 H        0.924     0.036     2.507     2.476
    66   1 H        0.925     0.068     2.107     2.270
    67   1 H        0.925     0.035     2.521     2.483
    68   1 H        0.925     0.049     2.327     2.385
    69   1 H        0.925     0.060     2.201     2.320
    70   1 H        0.925     0.033     2.540     2.492
    71   1 H        0.925     0.053     2.285     2.364
    72   1 H        0.860     0.154     1.376     1.838

Wiberg/Mayer (AO) data.
largest (>0.10) Wiberg bond orders for each atom

     #   Z sym  total        # sym  WBO       # sym  WBO       # sym  WBO
 ---------------------------------------------------------------------------
     1   7 N    3.037 --     2 C    1.953    72 H    0.943
     2   6 C    3.926 --     1 N    1.953     3 C    0.996    47 H    0.900
     3   6 C    3.977 --     2 C    0.996     4 C    0.969    14 C    0.957
                            31 C    0.943
     4   6 C    3.954 --    13 C    1.418     5 C    1.367     3 C    0.969
     5   6 C    3.965 --     6 C    1.404     4 C    1.367    34 H    0.958
     6   6 C    3.910 --     5 C    1.404     9 C    1.226     7 O    1.095
     7   8 O    2.253 --     6 C    1.095     8 C    0.979
     8   6 C    3.934 --     7 O    0.979    36 H    0.977    35 H    0.974
                            37 H    0.974
     9   6 C    3.907 --    12 C    1.396     6 C    1.226    10 O    1.096
    10   8 O    2.252 --     9 C    1.096    11 C    0.979
    11   6 C    3.934 --    10 O    0.979    39 H    0.977    40 H    0.974
                            38 H    0.974
    12   6 C    3.965 --    13 C    1.400     9 C    1.396    41 H    0.964
    13   6 C    3.959 --     4 C    1.418    12 C    1.400    42 H    0.963
    14   6 C    3.972 --    15 C    0.981    44 H    0.973    43 H    0.969
                             3 C    0.957
    15   6 C    3.987 --    16 C    1.059    14 C    0.981    45 H    0.962
                            46 H    0.929
    16   6 C    3.561 --    17 N    1.374    15 C    1.059    48 H    0.958
    17   7 N    3.457 --    16 C    1.374    30 C    0.999    18 C    0.994
    18   6 C    3.953 --    17 N    0.994    50 H    0.968    49 H    0.963
                            19 C    0.960
    19   6 C    3.977 --    20 C    1.018    52 H    0.971    51 H    0.970
                            18 C    0.960
    20   6 C    3.836 --    21 C    1.638    29 C    1.024    19 C    1.018
    21   6 C    3.968 --    20 C    1.638    22 C    1.260    53 H    0.965
    22   6 C    3.809 --    23 C    1.394    21 C    1.260    54 H    0.965
    23   6 C    3.896 --    22 C    1.394    26 C    1.246    24 O    1.101
    24   8 O    2.260 --    23 C    1.101    25 C    0.973
    25   6 C    3.929 --    57 H    0.977    55 H    0.975    56 H    0.974
                            24 O    0.973
    26   6 C    3.778 --    23 C    1.246    27 O    1.171    29 C    1.024
                            28 C    0.216
    27   8 O    2.547 --    28 C    1.261    26 C    1.171
    28   6 C    3.571 --    27 O    1.261    58 H    0.970    59 H    0.967
                            26 C    0.216
    29   6 C    3.989 --    20 C    1.024    26 C    1.024    61 H    0.926
                            60 H    0.924
    30   6 C    3.959 --    17 N    0.999    64 H    0.978    62 H    0.967
                            63 H    0.961
    31   6 C    3.975 --    33 C    1.009    32 C    1.008    65 H    0.961
                             3 C    0.943
    32   6 C    3.981 --    31 C    1.008    67 H    0.982    68 H    0.982
                            66 H    0.975
    33   6 C    3.985 --    31 C    1.009    70 H    0.983    71 H    0.981
                            69 H    0.977
    34   1 H    0.996 --     5 C    0.958
    35   1 H    0.994 --     8 C    0.974
    36   1 H    0.993 --     8 C    0.977
    37   1 H    0.994 --     8 C    0.974
    38   1 H    0.994 --    11 C    0.974
    39   1 H    0.993 --    11 C    0.977
    40   1 H    0.994 --    11 C    0.974
    41   1 H    0.996 --    12 C    0.964
    42   1 H    0.998 --    13 C    0.963
    43   1 H    0.995 --    14 C    0.969
    44   1 H    0.996 --    14 C    0.973
    45   1 H    0.995 --    15 C    0.962
    46   1 H    0.969 --    15 C    0.929
    47   1 H    0.989 --     2 C    0.900
    48   1 H    0.995 --    16 C    0.958
    49   1 H    0.991 --    18 C    0.963
    50   1 H    0.995 --    18 C    0.968
    51   1 H    0.994 --    19 C    0.970
    52   1 H    0.995 --    19 C    0.971
    53   1 H    0.997 --    21 C    0.965
    54   1 H    0.995 --    22 C    0.965
    55   1 H    0.994 --    25 C    0.975
    56   1 H    0.994 --    25 C    0.974
    57   1 H    0.993 --    25 C    0.977
    58   1 H    0.992 --    28 C    0.970
    59   1 H    0.997 --    28 C    0.967
    60   1 H    0.977 --    29 C    0.924
    61   1 H    0.970 --    29 C    0.926
    62   1 H    0.985 --    30 C    0.967
    63   1 H    0.987 --    30 C    0.961
    64   1 H    0.994 --    30 C    0.978
    65   1 H    0.994 --    31 C    0.961
    66   1 H    0.992 --    32 C    0.975
    67   1 H    0.997 --    32 C    0.982
    68   1 H    0.995 --    32 C    0.982
    69   1 H    0.994 --    33 C    0.977
    70   1 H    0.998 --    33 C    0.983
    71   1 H    0.994 --    33 C    0.981
    72   1 H    0.972 --     1 N    0.943
 ---------------------------------------------------------------------------

molecular dipole:
                 x           y           z       tot (Debye)
 q only:        1.855      -0.367      -0.738
   full:        2.171      -0.459      -0.846       6.036

           -------------------------------------------------
          | TOTAL ENERGY              -99.334921963572 Eh   |
          | GRADIENT NORM               0.001926103836 Eh/α |
          | HOMO-LUMO GAP               1.152199257248 eV   |
           -------------------------------------------------

 * finished run on 2024/04/06 at 11:15:17.988
