   * xtb version 6.6.1 (8d0f1dd) compiled by 'conda@1efc2f54142f' on 2023-08-01
          program call               : xtb xtbopt.xyz --opt crude --input .xc2 --gfn2

   ID    Z sym.   atoms
    1    7 N      1, 17
    2    6 C      2-6, 8, 9, 11-16, 18-23, 25, 26, 28-33
    3    8 O      7, 10, 24, 27
    4    1 H      34-72
########################################################################
[WARNING] Please study the warnings concerning your input carefully
-1- readin_getIntValue: could not parse ''
########################################################################

          :  Hamiltonian                  GFN2-xTB          :
 * total energy  :   -99.3352811 Eh     change       -0.9279688E-11 Eh
 * total energy  :   -99.3372276 Eh     change       -0.1946417E-02 Eh
 * total energy  :   -99.3382976 Eh     change       -0.1070080E-02 Eh
 * total energy  :   -99.3387745 Eh     change       -0.4768308E-03 Eh
   *** GEOMETRY OPTIMIZATION CONVERGED AFTER 4 ITERATIONS ***

 final structure:
================
72
 xtb: 6.6.1 (8d0f1dd)
N           -1.86441492152114        2.83644861267434        2.21052878351100
C           -1.81706546384198        2.12473553389421        1.18466498238910
C           -2.96277129118562        1.91230676941305        0.23456812220343
C           -3.43423497482719        0.46845450210714        0.32236285922249
C           -4.36246864995799       -0.01252365449231       -0.60347001267967
C           -4.83912536617780       -1.31080406046441       -0.54382832209690
O           -5.74481363724341       -1.84754516553111       -1.38965893138693
C           -6.35998073119739       -1.02242614117789       -2.35051638904960
C           -4.36589164052226       -2.18378924211150        0.47147453216828
O           -4.87745303164809       -3.43268648159476        0.44885719066216
C           -4.52551476332741       -4.33350226821273        1.47218943938809
C           -3.44511217998423       -1.70128955190419        1.38678138682365
C           -2.98864192738999       -0.39044221280368        1.31399169302977
C           -2.40354988456083        2.19990823651739       -1.18376361660340
C           -1.47792088547334        1.10284910356129       -1.74089683108054
C           -0.15299165719296        1.06624311728003       -1.08431975868564
N            0.48129277339148       -0.03535645910756       -0.68412468701388
C            1.84656941424030        0.03725275249979       -0.23119351876030
C            2.84167106770362       -0.42791108001761       -1.31784151026772
C            4.25063450601156       -0.19601820360627       -0.86693744666173
C            4.92124430727607        0.94438074972160       -1.14105462154032
C            6.23655739377573        1.18735973872365       -0.68538535490927
C            6.93351879785708        0.21784530250334        0.01347152871057
O            8.19553281185130        0.34288989665039        0.47280590162265
C            8.89161606196238        1.54743080928006        0.23386941202620
C            6.31673503615955       -1.02837463611045        0.28190823611048
O            7.06509802611036       -1.98168664206808        0.81173315309717
C            6.65788465279782       -3.16503292515014        1.17342328666019
C            4.87690717588494       -1.27869149392411       -0.04581407076486
C           -0.13071937406459       -1.34048576129830       -0.75150557070915
C           -4.17885393606645        2.84196540778967        0.52112469516010
C           -4.82170479995061        2.52154718537091        1.86851568035306
C           -3.82780380709198        4.32589433557585        0.45718236812139
H           -4.72881809041400        0.64543651434670       -1.37368551209339
H           -6.87111395808620       -0.17527851796792       -1.88316089851744
H           -7.09241783259086       -1.65303848107504       -2.85057180289821
H           -5.63885198105258       -0.65457331742809       -3.08791715683525
H           -4.80229068552096       -3.94861036417305        2.45821786970903
H           -5.08936340630941       -5.24163743115183        1.26832328405356
H           -3.45473911819050       -4.56168537135042        1.45631823247305
H           -3.08260299369167       -2.33517932777282        2.17978420408194
H           -2.29692598287065       -0.04222398203177        2.06545562322274
H           -3.23967200968051        2.31671127306027       -1.87224396090682
H           -1.85994712139263        3.14519192107141       -1.16234845952117
H           -1.97963081871685        0.13838517784256       -1.68737537111793
H           -1.31601067845985        1.33696482515419       -2.80136773432258
H           -0.90341874995591        1.60274620347390        0.83970656100314
H            0.41350559757180        1.98478889496064       -1.05106443629200
H            1.95918825447633       -0.58383220925317        0.66182176702372
H            2.08462681954063        1.06875782279025        0.03606605168161
H            2.64358456458050        0.13935133038292       -2.22861389123297
H            2.67893899512385       -1.48648270275664       -1.52854271174214
H            4.44988925548710        1.71035288750776       -1.73980367634343
H            6.69183142242888        2.13369220743660       -0.91877530337302
H            8.38198504706003        2.40090626703837        0.69025204562972
H            9.02163757595493        1.72704937289181       -0.83692292086482
H            9.86627287898894        1.41856503631072        0.70013889973865
H            7.43198855372719       -3.85019450957012        1.48678974481437
H            5.61742628125644       -3.46301381363405        1.14146006022484
H            4.79292323816935       -2.23161599377608       -0.59698366342728
H            4.30360291776252       -1.41624102958683        0.88671536164993
H           -0.27318144016231       -1.65805441801424       -1.78681046402306
H           -1.10110704109781       -1.33356020670827       -0.24899979768905
H            0.51044696096397       -2.06305330226243       -0.25301604758394
H           -4.91799728942162        2.63583569134426       -0.26137664536206
H           -4.12440498901538        2.73264605079140        2.67260189012793
H           -5.11907930353020        1.47717639596517        1.92350893325650
H           -5.70667664953351        3.13734100397901        2.00535663602707
H           -3.07796412369962        4.56842893834728        1.20368981935326
H           -3.46374119850533        4.61545260198658       -0.52505151119464
H           -4.71859296798345        4.91183886112938        0.66775409188362
H           -1.01701343800445        2.92584914921509        2.76279312293746

          :  Hamiltonian                  GFN2-xTB          :
         :: total energy             -99.338774464208 Eh    ::
         :: gradient norm              0.009199320446 Eh/a0 ::
         :: HOMO-LUMO gap              1.136248226620 eV    ::
         :: SCC energy              -100.699144636446 Eh    ::
         :: -> dispersion             -0.075312946673 Eh    ::
         :: repulsion energy           1.359109633045 Eh    ::

    * Orbital Energies and Occupations

         #    Occupation            Energy/Eh            Energy/eV
      -------------------------------------------------------------
         1        2.0000           -0.8485256             -23.0896
       ...           ...                  ...                  ...
        78        1.9990           -0.5286736             -14.3859
        79        1.9988           -0.5252258             -14.2921
        80        1.9986           -0.5230673             -14.2334
        81        1.9986           -0.5226042             -14.2208
        82        1.9980           -0.5168598             -14.0645
        83        1.9967           -0.5093182             -13.8593
        84        1.9961           -0.5066833             -13.7876
        85        1.9954           -0.5038662             -13.7109
        86        1.9842           -0.4843333             -13.1794
        87        1.9790           -0.4797936             -13.0558
        88        1.9479           -0.4651619             -12.6577
        89        1.8949           -0.4535964             -12.3430
        90        1.5997           -0.4297457             -11.6940 (HOMO)
        91        0.4448           -0.3879893             -10.5577 (LUMO)
        92        0.1451           -0.3674640              -9.9992
        93        0.0172           -0.3326467              -9.0518
        94        0.0042           -0.3103761              -8.4458
        95        0.0035           -0.3071406              -8.3577
        96        0.0033           -0.3065542              -8.3418
        97        0.0000           -0.2243294              -6.1043
        98        0.0000           -0.1844406              -5.0189
        99                         -0.1318287              -3.5872
       100                         -0.0735014              -2.0001
       101                         -0.0628684              -1.7107
       ...                                ...                  ...
       171                          0.5789818              15.7549
      -------------------------------------------------------------
                  HL-Gap            0.0417564 Eh            1.1362 eV

     #   Z          covCN         q      C6AA      α(0)
     1   7 N        1.773    -0.273    27.894     7.821
     2   6 C        2.827     0.101    25.760     8.317
     3   6 C        3.907     0.006    20.416     6.422
     4   6 C        2.974     0.002    27.985     8.677
     5   6 C        2.921    -0.080    30.007     8.983
     6   6 C        2.863     0.128    25.187     8.226
     7   8 O        1.706    -0.234    17.873     5.708
     8   6 C        3.645     0.029    20.427     6.496
     9   6 C        2.864     0.127    25.215     8.231
    10   8 O        1.706    -0.233    17.857     5.705
    11   6 C        3.645     0.028    20.431     6.496
    12   6 C        2.914    -0.076    29.888     8.965
    13   6 C        2.921    -0.054    29.346     8.884
    14   6 C        3.812    -0.064    21.722     6.634
    15   6 C        3.802    -0.068    21.803     6.648
    16   6 C        2.843     0.001    27.987     8.670
    17   7 N        2.729     0.003    21.209     6.840
    18   6 C        3.756    -0.015    20.904     6.519
    19   6 C        3.807    -0.072    21.879     6.659
    20   6 C        2.954    -0.013    28.340     8.732
    21   6 C        2.907    -0.044    29.084     8.843
    22   6 C        2.911    -0.082    30.051     8.989
    23   6 C        2.851     0.137    24.998     8.195
    24   8 O        1.706    -0.237    17.923     5.716
    25   6 C        3.645     0.025    20.486     6.505
    26   6 C        2.865     0.085    26.113     8.376
    27   8 O        1.711    -0.074    15.472     5.311
    28   6 C        2.741     0.001    27.987     8.662
    29   6 C        3.809    -0.072    21.862     6.656
    30   6 C        3.699    -0.068    21.983     6.706
    31   6 C        3.853    -0.007    20.672     6.467
    32   6 C        3.756    -0.118    22.819     6.811
    33   6 C        3.755    -0.118    22.816     6.811
    34   1 H        0.926     0.051     2.311     2.377
    35   1 H        0.924     0.052     2.291     2.367
    36   1 H        0.925     0.079     1.986     2.204
    37   1 H        0.924     0.046     2.373     2.409
    38   1 H        0.924     0.053     2.280     2.361
    39   1 H        0.925     0.079     1.987     2.204
    40   1 H        0.924     0.046     2.376     2.410
    41   1 H        0.926     0.049     2.328     2.386
    42   1 H        0.926     0.037     2.496     2.470
    43   1 H        0.925     0.059     2.216     2.328
    44   1 H        0.924     0.052     2.296     2.370
    45   1 H        0.925     0.065     2.145     2.291
    46   1 H        0.923     0.076     2.023     2.224
    47   1 H        0.922     0.005     2.980     2.700
    48   1 H        0.926     0.065     2.140     2.288
    49   1 H        0.924     0.062     2.179     2.309
    50   1 H        0.924     0.067     2.124     2.279
    51   1 H        0.924     0.058     2.227     2.334
    52   1 H        0.924     0.054     2.275     2.359
    53   1 H        0.926     0.049     2.330     2.387
    54   1 H        0.926     0.058     2.221     2.330
    55   1 H        0.924     0.054     2.270     2.356
    56   1 H        0.924     0.056     2.247     2.344
    57   1 H        0.925     0.081     1.966     2.193
    58   1 H        0.926     0.086     1.920     2.167
    59   1 H        0.925     0.051     2.309     2.376
    60   1 H        0.923     0.066     2.134     2.285
    61   1 H        0.923     0.061     2.190     2.314
    62   1 H        0.924     0.074     2.044     2.236
    63   1 H        0.924     0.079     1.990     2.206
    64   1 H        0.925     0.076     2.025     2.226
    65   1 H        0.924     0.036     2.509     2.477
    66   1 H        0.925     0.068     2.108     2.270
    67   1 H        0.925     0.035     2.522     2.483
    68   1 H        0.925     0.049     2.328     2.386
    69   1 H        0.925     0.060     2.201     2.320
    70   1 H        0.925     0.033     2.540     2.492
    71   1 H        0.925     0.053     2.286     2.365
    72   1 H        0.860     0.154     1.377     1.838

Wiberg/Mayer (AO) data.
largest (>0.10) Wiberg bond orders for each atom

     #   Z sym  total        # sym  WBO       # sym  WBO       # sym  WBO
 ---------------------------------------------------------------------------
     1   7 N    3.037 --     2 C    1.953    72 H    0.943
     2   6 C    3.926 --     1 N    1.953     3 C    0.996    47 H    0.900
     3   6 C    3.978 --     2 C    0.996     4 C    0.969    14 C    0.957
                            31 C    0.944
     4   6 C    3.954 --    13 C    1.418     5 C    1.367     3 C    0.969
     5   6 C    3.965 --     6 C    1.404     4 C    1.367    34 H    0.958
     6   6 C    3.910 --     5 C    1.404     9 C    1.226     7 O    1.095
     7   8 O    2.253 --     6 C    1.095     8 C    0.979
     8   6 C    3.934 --     7 O    0.979    36 H    0.977    35 H    0.974
                            37 H    0.974
     9   6 C    3.907 --    12 C    1.396     6 C    1.226    10 O    1.096
    10   8 O    2.251 --     9 C    1.096    11 C    0.979
    11   6 C    3.934 --    10 O    0.979    39 H    0.977    40 H    0.974
                            38 H    0.974
    12   6 C    3.965 --    13 C    1.400     9 C    1.396    41 H    0.964
    13   6 C    3.959 --     4 C    1.418    12 C    1.400    42 H    0.963
    14   6 C    3.972 --    15 C    0.981    44 H    0.973    43 H    0.969
                             3 C    0.957
    15   6 C    3.987 --    16 C    1.060    14 C    0.981    45 H    0.962
                            46 H    0.930
    16   6 C    3.560 --    17 N    1.373    15 C    1.060    48 H    0.958
    17   7 N    3.456 --    16 C    1.373    30 C    0.999    18 C    0.994
    18   6 C    3.953 --    17 N    0.994    50 H    0.968    49 H    0.964
                            19 C    0.960
    19   6 C    3.977 --    20 C    1.018    51 H    0.970    52 H    0.970
                            18 C    0.960
    20   6 C    3.834 --    21 C    1.643    29 C    1.022    19 C    1.018
    21   6 C    3.966 --    20 C    1.643    22 C    1.255    53 H    0.965
    22   6 C    3.805 --    23 C    1.398    21 C    1.255    54 H    0.965
    23   6 C    3.893 --    22 C    1.398    26 C    1.241    24 O    1.101
    24   8 O    2.259 --    23 C    1.101    25 C    0.973
    25   6 C    3.929 --    57 H    0.977    55 H    0.974    56 H    0.974
                            24 O    0.973
    26   6 C    3.772 --    23 C    1.241    27 O    1.170    29 C    1.018
                            28 C    0.221
    27   8 O    2.554 --    28 C    1.271    26 C    1.170
    28   6 C    3.569 --    27 O    1.271    59 H    0.969    58 H    0.968
                            26 C    0.221
    29   6 C    3.989 --    20 C    1.022    26 C    1.018    60 H    0.934
                            61 H    0.928
    30   6 C    3.959 --    17 N    0.999    64 H    0.978    62 H    0.967
                            63 H    0.961
    31   6 C    3.975 --    33 C    1.009    32 C    1.008    65 H    0.961
                             3 C    0.944
    32   6 C    3.981 --    31 C    1.008    67 H    0.982    68 H    0.982
                            66 H    0.975
    33   6 C    3.985 --    31 C    1.009    70 H    0.983    71 H    0.981
                            69 H    0.977
    34   1 H    0.996 --     5 C    0.958
    35   1 H    0.994 --     8 C    0.974
    36   1 H    0.993 --     8 C    0.977
    37   1 H    0.995 --     8 C    0.974
    38   1 H    0.994 --    11 C    0.974
    39   1 H    0.993 --    11 C    0.977
    40   1 H    0.994 --    11 C    0.974
    41   1 H    0.996 --    12 C    0.964
    42   1 H    0.998 --    13 C    0.963
    43   1 H    0.995 --    14 C    0.969
    44   1 H    0.996 --    14 C    0.973
    45   1 H    0.995 --    15 C    0.962
    46   1 H    0.969 --    15 C    0.930
    47   1 H    0.989 --     2 C    0.900
    48   1 H    0.995 --    16 C    0.958
    49   1 H    0.991 --    18 C    0.964
    50   1 H    0.995 --    18 C    0.968
    51   1 H    0.994 --    19 C    0.970
    52   1 H    0.995 --    19 C    0.970
    53   1 H    0.997 --    21 C    0.965
    54   1 H    0.995 --    22 C    0.965
    55   1 H    0.994 --    25 C    0.974
    56   1 H    0.994 --    25 C    0.974
    57   1 H    0.993 --    25 C    0.977
    58   1 H    0.992 --    28 C    0.968
    59   1 H    0.997 --    28 C    0.969
    60   1 H    0.976 --    29 C    0.934
    61   1 H    0.970 --    29 C    0.928
    62   1 H    0.985 --    30 C    0.967
    63   1 H    0.987 --    30 C    0.961
    64   1 H    0.994 --    30 C    0.978
    65   1 H    0.994 --    31 C    0.961
    66   1 H    0.992 --    32 C    0.975
    67   1 H    0.997 --    32 C    0.982
    68   1 H    0.995 --    32 C    0.982
    69   1 H    0.994 --    33 C    0.977
    70   1 H    0.998 --    33 C    0.983
    71   1 H    0.994 --    33 C    0.981
    72   1 H    0.972 --     1 N    0.943
 ---------------------------------------------------------------------------

molecular dipole:
                 x           y           z       tot (Debye)
 q only:        1.965      -0.407      -0.699
   full:        2.269      -0.515      -0.822       6.272

           -------------------------------------------------
          | TOTAL ENERGY              -99.338774464208 Eh   |
          | GRADIENT NORM               0.009199320446 Eh/α |
          | HOMO-LUMO GAP               1.136248226620 eV   |
           -------------------------------------------------

 * finished run on 2024/04/06 at 11:15:18.964
