   * xtb version 6.6.1 (8d0f1dd) compiled by 'conda@1efc2f54142f' on 2023-08-01
          program call               : xtb xtbopt.xyz --opt crude --input .xc2 --gfn2

   ID    Z sym.   atoms
    1    6 C      1, 3, 5-7, 10, 11, 14
    2    7 N      2, 4, 9, 13
    3    8 O      8, 12
    4    1 H      15-25
########################################################################
[WARNING] Please study the warnings concerning your input carefully
-1- readin_getIntValue: could not parse ''
########################################################################

          :  Hamiltonian                  GFN2-xTB          :
 * total energy  :   -37.3627367 Eh     change       -0.1278977E-12 Eh
 * total energy  :   -41.9961831 Eh     change       -0.4633446E+01 Eh
 * total energy  :   -42.0420281 Eh     change       -0.4584504E-01 Eh
 * total energy  :   -42.0501756 Eh     change       -0.8147476E-02 Eh
 * total energy  :   -42.0558802 Eh     change       -0.5704587E-02 Eh
 * total energy  :   -42.0587735 Eh     change       -0.2893377E-02 Eh
 * total energy  :   -42.0603224 Eh     change       -0.1548843E-02 Eh
 * total energy  :   -42.0610124 Eh     change       -0.6899710E-03 Eh
 * total energy  :   -42.0615217 Eh     change       -0.5093372E-03 Eh
 * total energy  :   -42.0617013 Eh     change       -0.1795948E-03 Eh
 * total energy  :   -42.0618032 Eh     change       -0.1019226E-03 Eh
 * total energy  :   -42.0618423 Eh     change       -0.3908762E-04 Eh
 * total energy  :   -42.0618841 Eh     change       -0.4182548E-04 Eh
 * total energy  :   -42.0619067 Eh     change       -0.2255560E-04 Eh
 * total energy  :   -42.0619308 Eh     change       -0.2407629E-04 Eh
 * total energy  :   -42.0619565 Eh     change       -0.2578099E-04 Eh
   *** GEOMETRY OPTIMIZATION CONVERGED AFTER 16 ITERATIONS ***

 final structure:
================
25
 xtb: 6.6.1 (8d0f1dd)
C            3.12627496513492        1.05823171363956        0.41208765856025
N            2.14895314376389        0.05242338850088        0.20752779264726
C            2.44816825971175       -1.24835523712855        0.10838587260868
N            1.31176489720883       -1.98178763713330        0.02333136624317
C            0.25864233241079       -1.12182933747559        0.05800684969544
C            0.76604139771447        0.17350887486625        0.17195335360060
C           -0.06713087366994        1.30227342823864        0.23467921930182
O            3.05995025277259        1.96713486823201       -0.92371728809576
N           -1.36861790218119        0.99226835974167        0.18147864294013
C           -2.33563781411289        2.07367173808922        0.25285977790339
C           -1.94883933841640       -0.27311951603784        0.06032406271246
O           -3.13794360821742       -0.43600895769321        0.00512536404477
N           -1.06204125407856       -1.36524660983479        0.00119508621161
C           -1.59955869338469       -2.70572982478575       -0.11728066006505
H            2.73858996608615        1.76699723281594        1.15020546328306
H            3.58778496506684        1.49360460971868       -1.60304353212245
H            3.50610551392988        2.79485109120304       -0.67446471017118
H            3.44158070020775       -1.64580655763154        0.13808665354068
H           -1.79410600641012        3.00882637483965        0.35795371928933
H           -2.94666826127257        2.08658536616063       -0.64989494322996
H           -2.99860206399172        1.92065232793078        1.10455739674496
H           -1.31131519919246       -3.30919615029943        0.74433726152121
H           -1.25155696412283       -3.17598922022462       -1.03779555876708
H           -2.68511613548542       -2.62045660774346       -0.14699276677128
H            1.27370923462865       -2.98926517639307       -0.02773446372208

          :  Hamiltonian                  GFN2-xTB          :
         :: total energy             -42.061956542152 Eh    ::
         :: gradient norm              0.008709077441 Eh/a0 ::
         :: HOMO-LUMO gap              1.624095180298 eV    ::
         :: SCC energy               -42.559132364690 Eh    ::
         :: -> dispersion             -0.022494472881 Eh    ::
         :: repulsion energy           0.497053221759 Eh    ::

    * Orbital Energies and Occupations

         #    Occupation            Energy/Eh            Energy/eV
      -------------------------------------------------------------
         1        2.0000           -0.9059847             -24.6531
       ...           ...                  ...                  ...
        25        2.0000           -0.6529431             -17.7675
        26        2.0000           -0.6403121             -17.4238
        27        2.0000           -0.6276211             -17.0784
        28        2.0000           -0.6223440             -16.9348
        29        1.9999           -0.6082110             -16.5503
        30        1.9999           -0.6041871             -16.4408
        31        1.9999           -0.6027016             -16.4003
        32        1.9996           -0.5848952             -15.9158
        33        1.9984           -0.5629152             -15.3177
        34        1.9981           -0.5604597             -15.2509
        35        1.9886           -0.5317920             -14.4708
        36        1.8712           -0.4923981             -13.3988
        37        1.7863           -0.4836491             -13.1608 (HOMO)
        38        0.3233           -0.4239647             -11.5367 (LUMO)
        39        0.0302           -0.3838776             -10.4458
        40        0.0045           -0.3536390              -9.6230
        41        0.0000           -0.2770538              -7.5390
        42        0.0000           -0.2486242              -6.7654
        43                         -0.1759126              -4.7868
        44                         -0.1613650              -4.3910
        45                         -0.1269063              -3.4533
        46                         -0.1046220              -2.8469
        47                         -0.0889731              -2.4211
        48                         -0.0426167              -1.1597
       ...                                ...                  ...
        67                          0.5515927              15.0096
      -------------------------------------------------------------
                  HL-Gap            0.0596844 Eh            1.6241 eV

     #   Z          covCN         q      C6AA      α(0)
     1   6 C        2.618    -0.133    31.402     9.165
     2   7 N        2.823     0.042    20.505     6.725
     3   6 C        3.045     0.049    26.866     8.501
     4   7 N        2.776    -0.069    22.584     7.058
     5   6 C        3.048     0.109    25.549     8.290
     6   6 C        3.102     0.019    27.444     8.584
     7   6 C        1.923    -0.133    34.850     9.534
     8   8 O        2.377    -0.292    18.816     5.858
     9   7 N        2.760    -0.003    21.322     6.858
    10   6 C        3.719    -0.064    21.858     6.678
    11   6 C        2.734     0.309    21.754     7.636
    12   8 O        0.859    -0.382    21.321     6.191
    13   7 N        2.739    -0.059    22.383     7.027
    14   6 C        3.696    -0.064    21.903     6.695
    15   1 H        0.924     0.063     2.160     2.298
    16   1 H        0.803     0.362     0.561     1.176
    17   1 H        0.804     0.374     0.535     1.149
    18   1 H        0.926     0.111     1.687     2.031
    19   1 H        0.925     0.097     1.815     2.107
    20   1 H        0.925     0.091     1.869     2.138
    21   1 H        0.925     0.092     1.858     2.132
    22   1 H        0.924     0.075     2.032     2.229
    23   1 H        0.924     0.074     2.046     2.237
    24   1 H        0.925     0.119     1.622     1.992
    25   1 H        0.860     0.214     1.039     1.597

Wiberg/Mayer (AO) data.
largest (>0.10) Wiberg bond orders for each atom

     #   Z sym  total        # sym  WBO       # sym  WBO       # sym  WBO
 ---------------------------------------------------------------------------
     1   6 C    2.693 --     2 N    1.007    15 H    0.954     8 O    0.667
     2   7 N    3.600 --     3 C    1.344     6 C    1.106     1 C    1.007
     3   6 C    3.747 --     2 N    1.344     4 N    1.259    18 H    0.956
     4   7 N    3.571 --     3 C    1.259     5 C    1.193    25 H    0.923
     5   6 C    3.894 --     6 C    1.294    13 N    1.215     4 N    1.193
     6   6 C    3.890 --     5 C    1.294     7 C    1.248     2 N    1.106
     7   6 C    2.771 --     9 N    1.338     6 C    1.248
     8   8 O    2.407 --    16 H    0.860    17 H    0.852     1 C    0.667
     9   7 N    3.608 --     7 C    1.338    11 C    1.085    10 C    0.981
                            12 O    0.118
    10   6 C    3.933 --     9 N    0.981    19 H    0.977    20 H    0.965
                            21 H    0.965
    11   6 C    3.937 --    12 O    1.696     9 N    1.085    13 N    1.053
    12   8 O    2.035 --    11 C    1.696    13 N    0.132     9 N    0.118
    13   7 N    3.550 --     5 C    1.215    11 C    1.053    14 C    0.978
                            12 O    0.132
    14   6 C    3.934 --    13 N    0.978    23 H    0.972    22 H    0.972
                            24 H    0.966
    15   1 H    0.981 --     1 C    0.954
    16   1 H    0.867 --     8 O    0.860
    17   1 H    0.859 --     8 O    0.852
    18   1 H    0.986 --     3 C    0.956
    19   1 H    0.990 --    10 C    0.977
    20   1 H    0.987 --    10 C    0.965
    21   1 H    0.987 --    10 C    0.965
    22   1 H    0.992 --    14 C    0.972
    23   1 H    0.993 --    14 C    0.972
    24   1 H    0.985 --    14 C    0.966
    25   1 H    0.953 --     4 N    0.923
 ---------------------------------------------------------------------------

molecular dipole:
                 x           y           z       tot (Debye)
 q only:        3.758       0.023      -0.943
   full:        3.629      -0.592      -1.170       9.807

           -------------------------------------------------
          | TOTAL ENERGY              -42.061956542152 Eh   |
          | GRADIENT NORM               0.008709077441 Eh/α |
          | HOMO-LUMO GAP               1.624095180298 eV   |
           -------------------------------------------------

 * finished run on 2024/06/05 at 19:58:06.790
