   * xtb version 6.6.1 (8d0f1dd) compiled by 'conda@1efc2f54142f' on 2023-08-01
          program call               : xtb struc.xyz --opt loose --input .xc1 --gfn2

   ID    Z sym.   atoms
    1    6 C      1, 3, 5-7, 10, 11, 14
    2    7 N      2, 4, 9, 13
    3    8 O      8, 12
    4    1 H      15-25
constraining bond 2 25 to    3.6866700 Å, actual value:    3.1552271 Å

          :  Hamiltonian                  GFN2-xTB          :
 * total energy  :   -42.7521491 Eh     change       -0.6650680E-10 Eh
 * total energy  :   -44.6709765 Eh     change       -0.1918827E+01 Eh
 * total energy  :   -47.3221792 Eh     change       -0.2651203E+01 Eh
 * total energy  :   -50.8783423 Eh     change       -0.3556163E+01 Eh
 * total energy  :   -54.3116227 Eh     change       -0.3433280E+01 Eh
 * total energy  :   -56.5166116 Eh     change       -0.2204989E+01 Eh
 * total energy  :   -57.4394684 Eh     change       -0.9228568E+00 Eh
 * total energy  :   -58.3107293 Eh     change       -0.8712609E+00 Eh
 * total energy  :   -58.3635630 Eh     change       -0.5283374E-01 Eh
 * total energy  :   -58.4331962 Eh     change       -0.6963320E-01 Eh
 * total energy  :   -59.3555983 Eh     change       -0.5665024E-03 Eh
 * total energy  :   -59.3559099 Eh     change       -0.3116205E-03 Eh
 * total energy  :   -59.3560531 Eh     change       -0.1432273E-03 Eh
 * total energy  :   -59.3561278 Eh     change       -0.7471892E-04 Eh
 * total energy  :   -59.3561798 Eh     change       -0.5196673E-04 Eh
 * total energy  :   -59.3562131 Eh     change       -0.3332067E-04 Eh
 * total energy  :   -59.3562446 Eh     change       -0.3151596E-04 Eh
 * total energy  :   -59.3562747 Eh     change       -0.3009051E-04 Eh
 * total energy  :   -59.3562935 Eh     change       -0.1877814E-04 Eh
   *** GEOMETRY OPTIMIZATION CONVERGED AFTER 92 ITERATIONS ***

 final structure:
================
25
 xtb: 6.6.1 (8d0f1dd)
C            3.29108546784466        0.87080300512748        0.33788651134796
N            2.01708750760698       -0.83232114769646       -1.03198995549504
C            2.33963888855789       -0.28091455551229        0.31705072061315
N            1.16293541457079       -2.04411543449219       -0.84645134937593
C            0.22642344167959       -1.34847778072509       -0.24733838287392
C            0.96509262504031       -0.07138089838905       -0.22665334632237
C            0.17084046663928        1.17991631886259       -0.42749513745463
O            0.59894385056758        2.22169733134141       -0.83760954453594
N           -1.12371226477056        0.95377247178685       -0.00141031058391
C           -2.00759326801628        2.11710823447375        0.06480626364776
C           -1.75168848480669       -0.25103594623438        0.34732303144758
O           -2.87169282177423       -0.27597074898520        0.75758414579510
N           -1.03552516432447       -1.45745291401086        0.12357138678240
C           -1.73632529734913       -2.72765640237107        0.16600823162571
H            3.26510611774678        1.33872212029028        1.32090162508372
H            4.30772499296650        0.51928966250634        0.17051911953844
H            3.03619639054797        1.62031268200164       -0.40892727118782
H            2.48252355744465       -1.04194861516402        1.08137922017571
H           -1.42003171591115        3.00761358968069       -0.14249370814199
H           -2.80659751006710        2.02030185159849       -0.66995984763017
H           -2.45433049796370        2.17711791157799        1.05625216093354
H           -1.34448760485522       -3.33898796586616        0.97857062055629
H           -1.59184210607281       -3.25451983264719       -0.77656948884222
H           -2.79328585903831       -2.53089809134594        0.33525835230794
H            2.23394538784722       -0.75273630422792       -1.40904142950238

          :  Hamiltonian                  GFN2-xTB          :
         :: total energy             -59.356293511807 Eh    ::
         :: gradient norm              0.003161374847 Eh/a0 ::
         :: HOMO-LUMO gap              2.881355599211 eV    ::
         :: SCC energy               -42.620583169139 Eh    ::
         :: -> dispersion             -0.022121585140 Eh    ::
         :: repulsion energy           2.059823580876 Eh    ::

    * Orbital Energies and Occupations

         #    Occupation            Energy/Eh            Energy/eV
      -------------------------------------------------------------
         1        2.0000           -0.9489741             -25.8229
       ...           ...                  ...                  ...
        25        1.9999           -0.6793596             -18.4863
        26        1.9999           -0.6723316             -18.2951
        27        1.9996           -0.6534096             -17.7802
        28        1.9992           -0.6436361             -17.5142
        29        1.9992           -0.6430264             -17.4976
        30        1.9988           -0.6369607             -17.3326
        31        1.9981           -0.6294940             -17.1294
        32        1.9968           -0.6209632             -16.8973
        33        1.9957           -0.6161447             -16.7661
        34        1.9880           -0.5999344             -16.3250
        35        1.9807           -0.5923910             -16.1198
        36        1.9773           -0.5898130             -16.0496
        37        1.9566           -0.5793548             -15.7650 (HOMO)
        38        0.1064           -0.4734669             -12.8837 (LUMO)
        39        0.0035           -0.4183735             -11.3845
        40        0.0004           -0.3843061             -10.4575
        41        0.0000           -0.3312443              -9.0136
        42        0.0000           -0.3124476              -8.5021
        43        0.0000           -0.2577161              -7.0128
        44                         -0.2135315              -5.8105
        45                         -0.1497274              -4.0743
        46                         -0.1384256              -3.7668
        47                         -0.0909789              -2.4757
        48                         -0.0727213              -1.9788
       ...                                ...                  ...
        67                          5.3118770             144.5435
      -------------------------------------------------------------
                  HL-Gap            0.1058879 Eh            2.8814 eV

     #   Z          covCN         q      C6AA      α(0)
     1   6 C        3.753    -0.143    23.315     6.885
     2   7 N        3.946     0.102    19.483     6.556
     3   6 C        3.802     0.044    19.832     6.340
     4   7 N        2.102    -0.242    26.987     7.707
     5   6 C        3.167     0.154    24.354     8.064
     6   6 C        4.070     0.025    20.071     6.364
     7   6 C        2.760     0.274    22.372     7.746
     8   8 O        0.857    -0.320    20.151     6.018
     9   7 N        2.745    -0.086    22.914     7.110
    10   6 C        3.710    -0.065    21.896     6.687
    11   6 C        2.734     0.321    21.549     7.600
    12   8 O        0.859    -0.310    19.957     5.990
    13   7 N        2.733    -0.038    21.977     6.963
    14   6 C        3.697    -0.072    22.061     6.718
    15   1 H        0.925     0.116     1.648     2.007
    16   1 H        0.925     0.113     1.673     2.023
    17   1 H        0.925     0.107     1.722     2.052
    18   1 H        0.925     0.118     1.626     1.994
    19   1 H        0.925     0.116     1.646     2.006
    20   1 H        0.925     0.106     1.734     2.059
    21   1 H        0.925     0.110     1.692     2.034
    22   1 H        0.925     0.106     1.733     2.059
    23   1 H        0.925     0.107     1.720     2.051
    24   1 H        0.925     0.125     1.575     1.962
    25   1 H        0.867     0.233     0.951     1.527

Wiberg/Mayer (AO) data.
largest (>0.10) Wiberg bond orders for each atom

     #   Z sym  total        # sym  WBO       # sym  WBO       # sym  WBO
 ---------------------------------------------------------------------------
     1   6 C    3.957 --     3 C    1.031    17 H    0.971    15 H    0.954
                            16 H    0.952
     2   7 N    3.659 --     4 N    0.951    25 H    0.928     3 C    0.860
                             6 C    0.817
     3   6 C    3.864 --     1 C    1.031    18 H    0.953     6 C    0.918
                             2 N    0.860
     4   7 N    2.765 --     5 C    1.530     2 N    0.951    13 N    0.133
     5   6 C    3.934 --     4 N    1.530    13 N    1.291     6 C    0.992
     6   6 C    3.852 --     5 C    0.992     7 C    0.956     3 C    0.918
                             2 N    0.817
     7   6 C    3.941 --     8 O    1.747     9 N    1.146     6 C    0.956
     8   8 O    2.086 --     7 C    1.747     9 N    0.163
     9   7 N    3.548 --     7 C    1.146    11 C    1.079    10 C    0.959
                             8 O    0.163    12 O    0.117
    10   6 C    3.897 --    19 H    0.968    21 H    0.961    20 H    0.961
                             9 N    0.959
    11   6 C    3.941 --    12 O    1.758     9 N    1.079    13 N    1.015
    12   8 O    2.101 --    11 C    1.758     9 N    0.117    13 N    0.102
    13   7 N    3.584 --     5 C    1.291    11 C    1.015    14 C    0.961
                             4 N    0.133    12 O    0.102
    14   6 C    3.902 --    24 H    0.966    23 H    0.962    22 H    0.961
                            13 N    0.961
    15   1 H    0.985 --     1 C    0.954
    16   1 H    0.983 --     1 C    0.952
    17   1 H    0.988 --     1 C    0.971
    18   1 H    0.985 --     3 C    0.953
    19   1 H    0.984 --    10 C    0.968
    20   1 H    0.979 --    10 C    0.961
    21   1 H    0.980 --    10 C    0.961
    22   1 H    0.983 --    14 C    0.961
    23   1 H    0.983 --    14 C    0.962
    24   1 H    0.983 --    14 C    0.966
    25   1 H    0.945 --     2 N    0.928
 ---------------------------------------------------------------------------

molecular dipole:
                 x           y           z       tot (Debye)
 q only:        1.512      -0.783       0.092
   full:        1.767      -0.789      -0.048       4.920

           -------------------------------------------------
          | TOTAL ENERGY              -59.356293511807 Eh   |
          | GRADIENT NORM               0.003161374847 Eh/α |
          | HOMO-LUMO GAP               2.881355599211 eV   |
           -------------------------------------------------

 * finished run on 2024/06/05 at 19:58:06.890
