   * xtb version 6.6.1 (8d0f1dd) compiled by 'conda@1efc2f54142f' on 2023-08-01
          program call               : xtb struc.xyz --opt loose --input .xc1 --gfn2

   ID    Z sym.   atoms
    1    6 C      1, 3, 5-7, 10, 11, 14
    2    7 N      2, 4, 9, 13
    3    8 O      8, 12
    4    1 H      15-25
constraining bond 8 20 to    4.6333300 Å, actual value:    3.4833385 Å

          :  Hamiltonian                  GFN2-xTB          :
 * total energy  :   -44.6213816 Eh     change       -0.2401990E-09 Eh
 * total energy  :   -48.5638933 Eh     change       -0.3942512E+01 Eh
 * total energy  :   -54.3601795 Eh     change       -0.5796286E+01 Eh
 * total energy  :   -62.1227574 Eh     change       -0.7762578E+01 Eh
 * total energy  :   -71.1098203 Eh     change       -0.8987063E+01 Eh
 * total energy  :   -46.0943272 Eh     change        0.2501549E+02 Eh
 * total energy  :   -67.4495846 Eh     change       -0.2135526E+02 Eh
 * total energy  :   -67.8103829 Eh     change       -0.3607983E+00 Eh
 * total energy  :   -68.9642405 Eh     change       -0.1153858E+01 Eh
 * total energy  :   -71.6224334 Eh     change       -0.2658193E+01 Eh
 * total energy  :   -72.2272948 Eh     change       -0.2567001E-03 Eh
 * total energy  :   -72.2274814 Eh     change       -0.1866139E-03 Eh
 * total energy  :   -72.2275531 Eh     change       -0.7169587E-04 Eh
 * total energy  :   -72.2275982 Eh     change       -0.4509295E-04 Eh
 * total energy  :   -72.2276434 Eh     change       -0.4516693E-04 Eh
 * total energy  :   -72.2276906 Eh     change       -0.4728165E-04 Eh
 * total energy  :   -72.2277225 Eh     change       -0.3184014E-04 Eh
 * total energy  :   -72.2277562 Eh     change       -0.3366813E-04 Eh
 * total energy  :   -72.2277730 Eh     change       -0.1686979E-04 Eh
   *** GEOMETRY OPTIMIZATION CONVERGED AFTER 58 ITERATIONS ***

 final structure:
================
25
 xtb: 6.6.1 (8d0f1dd)
C            3.29313170847096        1.04443843974037       -0.01170136881809
N            2.33119893865623       -0.02109535767598       -0.00577830411178
C            2.58848857265729       -1.33618526746758        0.00298456731908
N            1.42032741688381       -2.03421711899796        0.02955122385672
C            0.39845513227029       -1.13795448940874        0.03882302733440
C            0.96453867202151        0.14811824946227        0.01601988413847
C            0.16716457060732        1.29023017389848        0.01247187678135
O           -1.59408751244267        3.23398144727531       -0.72919697489879
N           -1.15615563569301        1.04347503602552        0.05038503306510
C           -2.05940001146513        2.21448168745568        0.07370721336141
C           -1.78205510736967       -0.20696083593847        0.09785740050856
O           -2.97872450202041       -0.32882841261111        0.15460852298778
N           -0.93649313199960       -1.32837741636418        0.07110069009364
C           -1.52498570553322       -2.65233394870611        0.07296378529458
H            3.80419756325373        1.10549532156941        0.95110821889245
H            4.03564571477875        0.88326126788904       -0.79275056808557
H            2.76664191439970        1.97934408851003       -0.19291000142311
H            3.56320123405294       -1.77837359173182       -0.00906847677796
H           -2.14228644907609        2.54960175274754        1.12210002755241
H           -1.23654515969933        3.26175359730466       -0.92026425216161
H           -3.05192704143176        1.86579421564602       -0.25115573853467
H           -1.21775746697331       -3.20636020727495        0.96095395855039
H           -1.23494304438716       -3.19751887232454       -0.82637098766984
H           -2.60759220750293       -2.53180765968928        0.08521453361295
H            1.35039305164132       -3.04172355773543        0.03051832703440

          :  Hamiltonian                  GFN2-xTB          :
         :: total energy             -72.227773020787 Eh    ::
         :: gradient norm              0.003440328381 Eh/a0 ::
         :: HOMO-LUMO gap              1.811047608041 eV    ::
         :: SCC energy               -42.717549654728 Eh    ::
         :: -> dispersion             -0.022116086400 Eh    ::
         :: repulsion energy           2.392524932260 Eh    ::

    * Orbital Energies and Occupations

         #    Occupation            Energy/Eh            Energy/eV
      -------------------------------------------------------------
         1        2.0000           -0.8958735             -24.3780
       ...           ...                  ...                  ...
        25        1.9995           -0.6694401             -18.2164
        26        1.9993           -0.6600355             -17.9605
        27        1.9990           -0.6521754             -17.7466
        28        1.9974           -0.6304041             -17.1542
        29        1.9972           -0.6288728             -17.1125
        30        1.9967           -0.6245028             -16.9936
        31        1.9948           -0.6139197             -16.7056
        32        1.9918           -0.6032307             -16.4147
        33        1.9897           -0.5976937             -16.2641
        34        1.9806           -0.5825223             -15.8512
        35        1.9428           -0.5563777             -15.1398
        36        1.9079           -0.5446431             -14.8205
        37        1.6431           -0.5089219             -13.8485 (HOMO)
        38        0.4367           -0.4423671             -12.0374 (LUMO)
        39        0.0958           -0.4016559             -10.9296
        40        0.0286           -0.3721202             -10.1259
        41        0.0007           -0.2846580              -7.7459
        42        0.0000           -0.2030221              -5.5245
        43        0.0000           -0.1875005              -5.1021
        44        0.0000           -0.1370611              -3.7296
        45        0.0000           -0.1243334              -3.3833
        46                         -0.0686042              -1.8668
        47                         -0.0441368              -1.2010
        48                         -0.0298047              -0.8110
       ...                                ...                  ...
        67                          5.2497694             142.8535
      -------------------------------------------------------------
                  HL-Gap            0.0665548 Eh            1.8110 eV

     #   Z          covCN         q      C6AA      α(0)
     1   6 C        3.691    -0.086    22.330     6.762
     2   7 N        2.820     0.055    20.275     6.688
     3   6 C        3.036     0.041    27.051     8.531
     4   7 N        2.774    -0.065    22.503     7.045
     5   6 C        3.039     0.105    25.643     8.306
     6   6 C        3.101     0.026    27.302     8.562
     7   6 C        1.922    -0.108    34.097     9.430
     8   8 O        1.662    -0.403    20.911     6.173
     9   7 N        2.754    -0.042    22.054     6.975
    10   6 C        3.665     0.124    18.809     6.220
    11   6 C        2.722     0.307    21.785     7.641
    12   8 O        0.859    -0.369    21.071     6.154
    13   7 N        2.737    -0.044    22.086     6.980
    14   6 C        3.697    -0.070    22.009     6.711
    15   1 H        0.924     0.104     1.750     2.069
    16   1 H        0.925     0.102     1.771     2.081
    17   1 H        0.925     0.117     1.638     2.001
    18   1 H        0.926     0.113     1.674     2.023
    19   1 H        0.923     0.098     1.804     2.100
    20   1 H        0.847     0.366     0.546     1.158
    21   1 H        0.923     0.116     1.650     2.009
    22   1 H        0.924     0.084     1.934     2.175
    23   1 H        0.924     0.084     1.939     2.178
    24   1 H        0.925     0.125     1.570     1.959
    25   1 H        0.860     0.220     1.008     1.572

Wiberg/Mayer (AO) data.
largest (>0.10) Wiberg bond orders for each atom

     #   Z sym  total        # sym  WBO       # sym  WBO       # sym  WBO
 ---------------------------------------------------------------------------
     1   6 C    3.923 --     2 N    0.993    17 H    0.969    16 H    0.964
                            15 H    0.956
     2   7 N    3.582 --     3 C    1.334     6 C    1.130     1 C    0.993
     3   6 C    3.704 --     2 N    1.334     4 N    1.238    18 H    0.956
     4   7 N    3.546 --     3 C    1.238     5 C    1.200    25 H    0.921
     5   6 C    3.820 --     6 C    1.248    13 N    1.203     4 N    1.200
     6   6 C    3.865 --     7 C    1.275     5 C    1.248     2 N    1.130
     7   6 C    2.705 --     9 N    1.286     6 C    1.275
     8   8 O    1.992 --    10 C    1.053    20 H    0.859
     9   7 N    3.522 --     7 C    1.286    11 C    1.076    10 C    0.933
                            12 O    0.113
    10   6 C    3.886 --     8 O    1.053     9 N    0.933    21 H    0.932
                            19 H    0.928
    11   6 C    3.903 --    12 O    1.674     9 N    1.076    13 N    1.062
    12   8 O    1.990 --    11 C    1.674    13 N    0.120     9 N    0.113
    13   7 N    3.508 --     5 C    1.203    11 C    1.062    14 C    0.976
                            12 O    0.120
    14   6 C    3.917 --    13 N    0.976    23 H    0.967    22 H    0.967
                            24 H    0.963
    15   1 H    0.979 --     1 C    0.956
    16   1 H    0.983 --     1 C    0.964
    17   1 H    0.984 --     1 C    0.969
    18   1 H    0.986 --     3 C    0.956
    19   1 H    0.962 --    10 C    0.928
    20   1 H    0.865 --     8 O    0.859
    21   1 H    0.965 --    10 C    0.932
    22   1 H    0.985 --    14 C    0.967
    23   1 H    0.986 --    14 C    0.967
    24   1 H    0.982 --    14 C    0.963
    25   1 H    0.950 --     4 N    0.921
 ---------------------------------------------------------------------------

molecular dipole:
                 x           y           z       tot (Debye)
 q only:        2.501      -1.270       0.067
   full:        2.845      -2.028       0.038       8.882

           -------------------------------------------------
          | TOTAL ENERGY              -72.227773020787 Eh   |
          | GRADIENT NORM               0.003440328381 Eh/α |
          | HOMO-LUMO GAP               1.811047608041 eV   |
           -------------------------------------------------

 * finished run on 2024/06/05 at 19:59:01.568
