   * xtb version 6.6.1 (8d0f1dd) compiled by 'conda@1efc2f54142f' on 2023-08-01
          program call               : xtb xtbopt.xyz --opt crude --input .xc2 --gfn2

   ID    Z sym.   atoms
    1    6 C      1, 3, 5-7, 10, 11, 14
    2    7 N      2, 4, 9, 13
    3    8 O      8, 12
    4    1 H      15-25
########################################################################
[WARNING] Please study the warnings concerning your input carefully
-1- readin_getIntValue: could not parse ''
########################################################################

          :  Hamiltonian                  GFN2-xTB          :
 * total energy  :   -40.3249217 Eh     change       -0.7815970E-13 Eh
 * total energy  :   -42.1491019 Eh     change       -0.1824180E+01 Eh
 * total energy  :   -42.1737276 Eh     change       -0.2462571E-01 Eh
 * total energy  :   -42.1754284 Eh     change       -0.1700784E-02 Eh
 * total energy  :   -42.1762888 Eh     change       -0.8604030E-03 Eh
 * total energy  :   -42.1770148 Eh     change       -0.7260172E-03 Eh
 * total energy  :   -42.1785417 Eh     change       -0.1526868E-02 Eh
 * total energy  :   -42.1796813 Eh     change       -0.1139668E-02 Eh
 * total energy  :   -42.1802983 Eh     change       -0.6169404E-03 Eh
 * total energy  :   -42.1806823 Eh     change       -0.3840284E-03 Eh
 * total energy  :   -42.1809891 Eh     change       -0.3067992E-03 Eh
 * total energy  :   -42.1814296 Eh     change       -0.4404693E-03 Eh
 * total energy  :   -42.1819681 Eh     change       -0.5385228E-03 Eh
 * total energy  :   -42.1824788 Eh     change       -0.5106636E-03 Eh
 * total energy  :   -42.1829308 Eh     change       -0.4520292E-03 Eh
 * total energy  :   -42.1830609 Eh     change       -0.1300720E-03 Eh
   *** GEOMETRY OPTIMIZATION CONVERGED AFTER 16 ITERATIONS ***

 final structure:
================
25
 xtb: 6.6.1 (8d0f1dd)
C            3.24980065508933        1.08222134397484       -0.05136690897153
N            2.29948290857447        0.00716192392701       -0.02430962864302
C            2.57007428204928       -1.30379251933755       -0.00971853180413
N            1.41071609012987       -2.01499345958610        0.03235012557376
C            0.37907649822217       -1.13164587658782        0.04823477651519
C            0.93013073713784        0.16137611244149        0.00876598792577
C            0.12146808748954        1.29457061451875       -0.01849587572921
O           -1.60168316869776        3.22406241444773       -0.68815701074893
N           -1.19961264250532        1.02774399246833        0.05633019447065
C           -2.09463985319160        2.19079001002346        0.07802413915016
C           -1.81216365792635       -0.22417782285462        0.11200329092208
O           -3.00629758490248       -0.36011387591477        0.16981797356553
N           -0.95216168971284       -1.33831496603846        0.08664552562578
C           -1.52795633412855       -2.66705775634153        0.07685486519724
H            3.72417238025583        1.20148700759319        0.92498135289049
H            4.02296101922460        0.88710799391938       -0.79393958460423
H            2.72372337854508        2.00149842749689       -0.30043492495068
H            3.54848716026234       -1.73678975259789       -0.02172723660776
H           -2.21294650155079        2.51146254273260        1.12649195652411
H           -0.62928195233020        3.11772606596008       -0.74542050879798
H           -3.07649495480908        1.89427304435150       -0.30819335188433
H           -1.26346496065865       -3.20676850561274        0.98684987682806
H           -1.18654328940239       -3.22044908539133       -0.79825526212359
H           -2.61070311224697       -2.55645146059663        0.03266177591366
H            1.35428801918219       -3.02268787139765        0.05117860166518

          :  Hamiltonian                  GFN2-xTB          :
         :: total energy             -42.183060867059 Eh    ::
         :: gradient norm              0.009971828396 Eh/a0 ::
         :: HOMO-LUMO gap              1.906249159087 eV    ::
         :: SCC energy               -42.683569329899 Eh    ::
         :: -> dispersion             -0.022187684468 Eh    ::
         :: repulsion energy           0.500399786004 Eh    ::

    * Orbital Energies and Occupations

         #    Occupation            Energy/Eh            Energy/eV
      -------------------------------------------------------------
         1        2.0000           -0.8997526             -24.4835
       ...           ...                  ...                  ...
        25        1.9994           -0.6710582             -18.2604
        26        1.9992           -0.6618766             -18.0106
        27        1.9987           -0.6507288             -17.7072
        28        1.9975           -0.6361649             -17.3109
        29        1.9972           -0.6329524             -17.2235
        30        1.9964           -0.6272546             -17.0685
        31        1.9950           -0.6193912             -16.8545
        32        1.9943           -0.6164170             -16.7736
        33        1.9892           -0.6009641             -16.3531
        34        1.9787           -0.5847649             -15.9123
        35        1.9382           -0.5589912             -15.2109
        36        1.8878           -0.5441771             -14.8078
        37        1.6804           -0.5165555             -14.0562 (HOMO)
        38        0.4317           -0.4465022             -12.1499 (LUMO)
        39        0.0907           -0.4047802             -11.0146
        40        0.0267           -0.3749585             -10.2031
        41        0.0007           -0.2885988              -7.8532
        42        0.0000           -0.2039493              -5.5497
        43        0.0000           -0.1903374              -5.1793
        44        0.0000           -0.1379965              -3.7551
        45        0.0000           -0.1259339              -3.4268
        46                         -0.0729276              -1.9845
        47                         -0.0551942              -1.5019
        48                         -0.0455204              -1.2387
       ...                                ...                  ...
        67                          0.5223458              14.2138
      -------------------------------------------------------------
                  HL-Gap            0.0700534 Eh            1.9062 eV

     #   Z          covCN         q      C6AA      α(0)
     1   6 C        3.691    -0.086    22.328     6.762
     2   7 N        2.820     0.055    20.280     6.688
     3   6 C        3.038     0.042    27.014     8.525
     4   7 N        2.775    -0.065    22.491     7.044
     5   6 C        3.039     0.107    25.611     8.301
     6   6 C        3.103     0.026    27.282     8.559
     7   6 C        1.926    -0.122    34.519     9.488
     8   8 O        1.656    -0.371    20.304     6.083
     9   7 N        2.756    -0.042    22.044     6.973
    10   6 C        3.635     0.132    18.798     6.239
    11   6 C        2.723     0.309    21.746     7.634
    12   8 O        0.859    -0.365    20.998     6.144
    13   7 N        2.738    -0.044    22.092     6.981
    14   6 C        3.697    -0.070    22.008     6.710
    15   1 H        0.924     0.105     1.737     2.061
    16   1 H        0.925     0.102     1.763     2.076
    17   1 H        0.925     0.115     1.657     2.013
    18   1 H        0.927     0.114     1.665     2.018
    19   1 H        0.923     0.091     1.871     2.139
    20   1 H        0.803     0.332     0.632     1.249
    21   1 H        0.924     0.117     1.642     2.004
    22   1 H        0.924     0.086     1.916     2.165
    23   1 H        0.924     0.084     1.941     2.179
    24   1 H        0.925     0.126     1.565     1.957
    25   1 H        0.860     0.221     1.003     1.569

Wiberg/Mayer (AO) data.
largest (>0.10) Wiberg bond orders for each atom

     #   Z sym  total        # sym  WBO       # sym  WBO       # sym  WBO
 ---------------------------------------------------------------------------
     1   6 C    3.923 --     2 N    0.993    17 H    0.969    16 H    0.965
                            15 H    0.955
     2   7 N    3.584 --     3 C    1.337     6 C    1.128     1 C    0.993
     3   6 C    3.708 --     2 N    1.337     4 N    1.239    18 H    0.956
     4   7 N    3.549 --     3 C    1.239     5 C    1.201    25 H    0.921
     5   6 C    3.824 --     6 C    1.246    13 N    1.207     4 N    1.201
     6   6 C    3.868 --     7 C    1.280     5 C    1.246     2 N    1.128
     7   6 C    2.739 --     6 C    1.280     9 N    1.276
     8   8 O    1.957 --    10 C    1.048    20 H    0.840
     9   7 N    3.525 --     7 C    1.276    11 C    1.082    10 C    0.946
                            12 O    0.113
    10   6 C    3.891 --     8 O    1.048     9 N    0.946    21 H    0.936
                            19 H    0.921
    11   6 C    3.908 --    12 O    1.679     9 N    1.082    13 N    1.055
    12   8 O    1.992 --    11 C    1.679    13 N    0.120     9 N    0.113
    13   7 N    3.507 --     5 C    1.207    11 C    1.055    14 C    0.977
                            12 O    0.120
    14   6 C    3.916 --    13 N    0.977    23 H    0.967    22 H    0.965
                            24 H    0.962
    15   1 H    0.979 --     1 C    0.955
    16   1 H    0.983 --     1 C    0.965
    17   1 H    0.985 --     1 C    0.969
    18   1 H    0.986 --     3 C    0.956
    19   1 H    0.954 --    10 C    0.921
    20   1 H    0.887 --     8 O    0.840
    21   1 H    0.967 --    10 C    0.936
    22   1 H    0.984 --    14 C    0.965
    23   1 H    0.986 --    14 C    0.967
    24   1 H    0.981 --    14 C    0.962
    25   1 H    0.949 --     4 N    0.921
 ---------------------------------------------------------------------------

molecular dipole:
                 x           y           z       tot (Debye)
 q only:        2.806      -1.399       0.126
   full:        3.104      -2.250       0.249       9.764

           -------------------------------------------------
          | TOTAL ENERGY              -42.183060867059 Eh   |
          | GRADIENT NORM               0.009971828396 Eh/α |
          | HOMO-LUMO GAP               1.906249159087 eV   |
           -------------------------------------------------

 * finished run on 2024/06/05 at 19:59:02.119
