   * xtb version 6.6.1 (8d0f1dd) compiled by 'conda@1efc2f54142f' on 2023-08-01
          program call               : xtb struc.xyz --opt loose --input .xc1 --gfn2

   ID    Z sym.   atoms
    1    6 C      1, 3, 5-7, 10, 11, 14
    2    7 N      2, 4, 9, 13
    3    8 O      8, 12
    4    1 H      15-25
constraining bond 9 10 to    3.9200000 Å, actual value:    1.4599811 Å

          :  Hamiltonian                  GFN2-xTB          :
 * total energy  :   -31.4423667 Eh     change       -0.6650680E-10 Eh
 * total energy  :   -35.4193474 Eh     change       -0.3976981E+01 Eh
 * total energy  :   -38.7909918 Eh     change       -0.3371644E+01 Eh
 * total energy  :   -40.7918728 Eh     change       -0.2000881E+01 Eh
 * total energy  :   -41.4993584 Eh     change       -0.7074856E+00 Eh
 * total energy  :   -41.6055655 Eh     change       -0.1062071E+00 Eh
 * total energy  :   -41.6355922 Eh     change       -0.3002662E-01 Eh
 * total energy  :   -41.6891787 Eh     change       -0.5358653E-01 Eh
 * total energy  :   -41.7414604 Eh     change       -0.5228167E-01 Eh
 * total energy  :   -41.7959997 Eh     change       -0.5453937E-01 Eh
 * total energy  :   -42.1167289 Eh     change       -0.3395356E-03 Eh
 * total energy  :   -42.1171605 Eh     change       -0.4316107E-03 Eh
 * total energy  :   -42.1173147 Eh     change       -0.1542003E-03 Eh
 * total energy  :   -42.1174532 Eh     change       -0.1385223E-03 Eh
 * total energy  :   -42.1175405 Eh     change       -0.8727499E-04 Eh
 * total energy  :   -42.1176001 Eh     change       -0.5960333E-04 Eh
 * total energy  :   -42.1176489 Eh     change       -0.4878693E-04 Eh
 * total energy  :   -42.1177068 Eh     change       -0.5794454E-04 Eh
 * total energy  :   -42.1177525 Eh     change       -0.4572541E-04 Eh
   *** GEOMETRY OPTIMIZATION CONVERGED AFTER 37 ITERATIONS ***

 final structure:
================
25
 xtb: 6.6.1 (8d0f1dd)
C            3.42843706872567        0.91489413237946        0.06295221776645
N            2.50044563156442       -0.18261178261731       -0.00198870014563
C            2.78542096230128       -1.46723105891603       -0.14521370014807
N            1.64685484606271       -2.19474465882394       -0.12935245739362
C            0.59591795408090       -1.33240040976326        0.03069341186054
C            1.14394411831139       -0.05815221355889        0.11385370418418
C            0.26659606871822        1.12555093868153        0.23086662856332
O            0.70315859528295        2.25991021680837        0.24523203345974
N           -1.02704930497194        0.78432837082192        0.29167323493954
C           -3.62657112799887        3.66063480339821       -0.29018380353348
C           -1.59661129290365       -0.40969042571447        0.24797969966004
O           -2.77740819622817       -0.62445284529465        0.30823422932183
N           -0.71194603314407       -1.57695369221377        0.09688915934046
C           -1.28790991057562       -2.89702453119039        0.02808317580604
H            3.96550704069588        0.90037687361557        1.01275493630154
H            4.14971623147084        0.85438643887829       -0.75097066174285
H            2.86369757612403        1.84624408359492       -0.00555020348274
H            3.77006717543841       -1.87797294428804       -0.25668771227975
H           -2.78490803243478        4.32668456360865       -0.27962439993052
H           -4.00042787557421        3.27531481964920       -1.21884394090790
H           -4.08116031680714        3.35881494468503        0.63295467436040
H           -0.96178012797730       -3.50777550274367        0.87278160228791
H           -1.02656587002573       -3.38763695216965       -0.91128771478905
H           -2.37102039787807       -2.77435704038296        0.07891796269125
H            1.59402673184287       -3.19789758684381       -0.23299175828946

          :  Hamiltonian                  GFN2-xTB          :
         :: total energy             -42.117752541134 Eh    ::
         :: gradient norm              0.003685109820 Eh/a0 ::
         :: HOMO-LUMO gap              1.020763284333 eV    ::
         :: SCC energy               -42.649701690600 Eh    ::
         :: -> dispersion             -0.020556184163 Eh    ::
         :: repulsion energy           0.531901465176 Eh    ::

    * Orbital Energies and Occupations

         #    Occupation            Energy/Eh            Energy/eV
      -------------------------------------------------------------
         1        2.0000           -0.9093594             -24.7449
       ...           ...                  ...                  ...
        25        1.9998           -0.6523262             -17.7507
        26        1.9998           -0.6448162             -17.5463
        27        1.9994           -0.6300475             -17.1445
        28        1.9985           -0.6166670             -16.7804
        29        1.9984           -0.6155229             -16.7492
        30        1.9982           -0.6137991             -16.7023
        31        1.9982           -0.6130576             -16.6821
        32        1.9980           -0.6120799             -16.6555
        33        1.9694           -0.5683565             -15.4658
        34        1.9056           -0.5499853             -14.9659
        35        1.9025           -0.5494436             -14.9511
        36        1.8620           -0.5436023             -14.7922
        37        1.6850           -0.5289467             -14.3934 (HOMO)
        38        0.6671           -0.4914344             -13.3726 (LUMO)
        39        0.0167           -0.4267418             -11.6122
        40        0.0013           -0.3861252             -10.5070
        41        0.0002           -0.3564363              -9.6991
        42        0.0000           -0.2598939              -7.0721
        43                         -0.1945159              -5.2930
        44                         -0.1731704              -4.7122
        45                         -0.1381690              -3.7598
        46                         -0.0803390              -2.1861
        47                         -0.0550943              -1.4992
        48                         -0.0349952              -0.9523
       ...                                ...                  ...
        67                          0.5711257              15.5411
      -------------------------------------------------------------
                  HL-Gap            0.0375124 Eh            1.0208 eV

     #   Z          covCN         q      C6AA      α(0)
     1   6 C        3.692    -0.094    22.491     6.786
     2   7 N        2.835     0.090    19.689     6.590
     3   6 C        3.061     0.056    26.684     8.471
     4   7 N        2.799    -0.064    22.481     7.042
     5   6 C        3.032     0.123    25.268     8.245
     6   6 C        3.134    -0.017    28.217     8.695
     7   6 C        2.762     0.298    21.938     7.670
     8   8 O        0.858    -0.345    20.616     6.088
     9   7 N        1.843    -0.246    27.261     7.738
    10   6 C        2.779    -0.066    29.635     8.916
    11   6 C        2.708     0.337    21.267     7.548
    12   8 O        0.860    -0.337    20.467     6.066
    13   7 N        2.735    -0.071    22.614     7.063
    14   6 C        3.692    -0.066    21.961     6.705
    15   1 H        0.924     0.111     1.690     2.033
    16   1 H        0.925     0.106     1.734     2.059
    17   1 H        0.924     0.141     1.454     1.886
    18   1 H        0.926     0.125     1.574     1.962
    19   1 H        0.926     0.135     1.497     1.914
    20   1 H        0.926     0.132     1.519     1.927
    21   1 H        0.926     0.136     1.491     1.910
    22   1 H        0.924     0.082     1.959     2.189
    23   1 H        0.924     0.080     1.984     2.203
    24   1 H        0.924     0.127     1.555     1.950
    25   1 H        0.860     0.229     0.969     1.542

Wiberg/Mayer (AO) data.
largest (>0.10) Wiberg bond orders for each atom

     #   Z sym  total        # sym  WBO       # sym  WBO       # sym  WBO
 ---------------------------------------------------------------------------
     1   6 C    3.908 --     2 N    0.984    16 H    0.964    17 H    0.955
                            15 H    0.954
     2   7 N    3.717 --     3 C    1.406     6 C    1.182     1 C    0.984
     3   6 C    3.884 --     2 N    1.406     4 N    1.283    18 H    0.952
     4   7 N    3.590 --     3 C    1.283     5 C    1.172    25 H    0.919
     5   6 C    3.951 --     6 C    1.335    13 N    1.269     4 N    1.172
     6   6 C    3.807 --     5 C    1.335     2 N    1.182     7 C    0.992
     7   6 C    3.947 --     8 O    1.633     9 N    1.241     6 C    0.992
     8   8 O    1.926 --     7 C    1.633     9 N    0.133
     9   7 N    2.864 --    11 C    1.281     7 C    1.241     8 O    0.133
                            12 O    0.114
    10   6 C    2.938 --    20 H    0.980    19 H    0.979    21 H    0.979
    11   6 C    3.946 --    12 O    1.677     9 N    1.281    13 N    0.908
    12   8 O    1.975 --    11 C    1.677     9 N    0.114
    13   7 N    3.460 --     5 C    1.269    14 C    0.987    11 C    0.908
    14   6 C    3.917 --    13 N    0.987    23 H    0.964    22 H    0.963
                            24 H    0.960
    15   1 H    0.986 --     1 C    0.954
    16   1 H    0.987 --     1 C    0.964
    17   1 H    0.979 --     1 C    0.955
    18   1 H    0.983 --     3 C    0.952
    19   1 H    0.981 --    10 C    0.979
    20   1 H    0.981 --    10 C    0.980
    21   1 H    0.980 --    10 C    0.979
    22   1 H    0.981 --    14 C    0.963
    23   1 H    0.982 --    14 C    0.964
    24   1 H    0.981 --    14 C    0.960
    25   1 H    0.947 --     4 N    0.919
 ---------------------------------------------------------------------------

molecular dipole:
                 x           y           z       tot (Debye)
 q only:        2.015      -1.257      -0.488
   full:        2.460      -1.945      -0.555       8.094

           -------------------------------------------------
          | TOTAL ENERGY              -42.117752541134 Eh   |
          | GRADIENT NORM               0.003685109820 Eh/α |
          | HOMO-LUMO GAP               1.020763284333 eV   |
           -------------------------------------------------

 * finished run on 2024/06/05 at 20:00:13.013
