   * xtb version 6.6.1 (8d0f1dd) compiled by 'conda@1efc2f54142f' on 2023-08-01
          program call               : xtb struc.xyz --opt loose --input .xc1 --gfn2

   ID    Z sym.   atoms
    1    6 C      1, 3, 5-7, 10, 11, 14
    2    7 N      2, 4, 9, 13
    3    8 O      8, 12
    4    1 H      15-25
constraining bond 6 11 to    6.0000000 Å, actual value:    2.7841340 Å

          :  Hamiltonian                  GFN2-xTB          :
 * total energy  :    -5.3166471 Eh     change       -0.6650680E-10 Eh
 * total energy  :   -18.1447636 Eh     change       -0.1282812E+02 Eh
 * total energy  :   -25.8422205 Eh     change       -0.7697457E+01 Eh
 * total energy  :   -31.8638189 Eh     change       -0.6021598E+01 Eh
 * total energy  :   -36.7312882 Eh     change       -0.4867469E+01 Eh
 * total energy  :   -39.5424727 Eh     change       -0.2811185E+01 Eh
 * total energy  :   -40.6777762 Eh     change       -0.1135304E+01 Eh
 * total energy  :   -41.3214340 Eh     change       -0.6436578E+00 Eh
 * total energy  :   -41.4929506 Eh     change       -0.1715166E+00 Eh
 * total energy  :   -41.5526842 Eh     change       -0.5973365E-01 Eh
 * total energy  :   -41.9643500 Eh     change       -0.8776906E-04 Eh
 * total energy  :   -41.9643960 Eh     change       -0.4603107E-04 Eh
 * total energy  :   -41.9644569 Eh     change       -0.6089278E-04 Eh
 * total energy  :   -41.9644748 Eh     change       -0.1793120E-04 Eh
 * total energy  :   -41.9645210 Eh     change       -0.4614391E-04 Eh
 * total energy  :   -41.9645528 Eh     change       -0.3182797E-04 Eh
 * total energy  :   -41.9645931 Eh     change       -0.4033583E-04 Eh
 * total energy  :   -41.9646278 Eh     change       -0.3464609E-04 Eh
 * total energy  :   -41.9646497 Eh     change       -0.2188590E-04 Eh
   *** GEOMETRY OPTIMIZATION CONVERGED AFTER 88 ITERATIONS ***

 final structure:
================
25
 xtb: 6.6.1 (8d0f1dd)
C            3.58848156868412        0.83798701541907        0.22907031822365
N            3.17821467268349       -0.54380064738622        0.07500115358345
C            3.63082790135757       -1.74151285876827       -0.15223842913125
N            2.75302773399298       -2.83378499142635       -0.25628185164876
C            1.47782471418912       -2.77379027536437       -0.12319402290154
C            2.22811690018319        0.30060833516995        0.38646153800938
C           -1.66410343259463        1.66313263805700        0.01873306426653
O           -0.96891758134543        0.72471908596076        0.09297887066881
N           -2.41277296541599        2.53240369421448       -0.23435923095508
C           -3.12511593695979        3.72237635272421        0.00591598014422
C           -3.62829089313733       -0.68909886274594       -0.46334011726634
O           -4.47175807350540        0.04885878331739       -0.60903360296236
N            0.31685353644973       -2.62066946422049       -0.30521696709431
C           -0.97417450861272       -2.55254453301656        0.22048821016546
H            4.17013807435082        1.09136963115653        1.10905163169874
H            3.90143464803135        1.35208300612081       -0.67641124269616
H            1.19700130247137        0.44262994981192        0.17886074468939
H            4.68074444291828       -1.93895865135553       -0.24984661037086
H           -2.44897681474759        4.57873848676746       -0.02203126232265
H           -3.87008966054551        3.82827876480643       -0.78245034101630
H           -3.62643510625876        3.68297906600239        0.97494594266025
H           -1.04244740042241       -2.97982312222926        1.22128168562208
H           -1.64629860990521       -3.07074149836480       -0.46226539183987
H           -1.27282792234295       -1.50141740732778        0.24390442358759
H            3.18997492457367       -3.74178395572743       -0.38885287521569

          :  Hamiltonian                  GFN2-xTB          :
         :: total energy             -41.964649676128 Eh    ::
         :: gradient norm              0.003929122132 Eh/a0 ::
         :: HOMO-LUMO gap              2.182584328897 eV    ::
         :: SCC energy               -42.618862758548 Eh    ::
         :: -> dispersion             -0.016327987730 Eh    ::
         :: repulsion energy           0.654200878044 Eh    ::

    * Orbital Energies and Occupations

         #    Occupation            Energy/Eh            Energy/eV
      -------------------------------------------------------------
         1        2.0000           -0.8756896             -23.8287
       ...           ...                  ...                  ...
        25        2.0000           -0.6509838             -17.7142
        26        2.0000           -0.6396140             -17.4048
        27        2.0000           -0.6196034             -16.8603
        28        2.0000           -0.6124460             -16.6655
        29        1.9999           -0.6089812             -16.5712
        30        1.9999           -0.6027375             -16.4013
        31        1.9999           -0.5978138             -16.2673
        32        1.9998           -0.5894543             -16.0399
        33        1.9996           -0.5758722             -15.6703
        34        1.9986           -0.5569393             -15.1551
        35        1.9906           -0.5271748             -14.3452
        36        1.9888           -0.5244294             -14.2704
        37        1.8080           -0.4778988             -13.0043 (HOMO)
        38        0.1122           -0.3976903             -10.8217 (LUMO)
        39        0.0752           -0.3910483             -10.6410
        40        0.0127           -0.3623795              -9.8608
        41        0.0123           -0.3618593              -9.8467
        42        0.0024           -0.3359470              -9.1416
        43        0.0001           -0.2883048              -7.8452
        44        0.0000           -0.2742761              -7.4634
        45        0.0000           -0.2384519              -6.4886
        46                         -0.1711625              -4.6576
        47                         -0.1078841              -2.9357
        48                         -0.0749248              -2.0388
       ...                                ...                  ...
        67                          1.2612875              34.3214
      -------------------------------------------------------------
                  HL-Gap            0.0802085 Eh            2.1826 eV

     #   Z          covCN         q      C6AA      α(0)
     1   6 C        3.736    -0.010    20.845     6.515
     2   7 N        2.733     0.078    19.893     6.624
     3   6 C        2.768    -0.007    28.169     8.692
     4   7 N        2.685    -0.036    21.935     6.956
     5   6 C        1.845     0.132    27.913     8.535
     6   6 C        2.818    -0.056    29.388     8.882
     7   6 C        1.769     0.301    24.432     7.991
     8   8 O        0.856    -0.340    20.518     6.073
     9   7 N        1.820    -0.148    24.987     7.407
    10   6 C        3.685    -0.029    21.289     6.606
    11   6 C        0.856     0.028    34.254     9.766
    12   8 O        0.856    -0.050    15.797     5.329
    13   7 N        1.821    -0.007    22.086     6.963
    14   6 C        3.687    -0.073    22.098     6.729
    15   1 H        0.925     0.080     1.976     2.198
    16   1 H        0.925     0.070     2.087     2.259
    17   1 H        0.927     0.116     1.648     2.008
    18   1 H        0.926     0.092     1.855     2.130
    19   1 H        0.924     0.080     1.976     2.199
    20   1 H        0.925     0.092     1.859     2.132
    21   1 H        0.924     0.078     1.999     2.211
    22   1 H        0.924     0.098     1.799     2.098
    23   1 H        0.925     0.123     1.590     1.972
    24   1 H        0.924     0.151     1.383     1.839
    25   1 H        0.860     0.235     0.942     1.521

Wiberg/Mayer (AO) data.
largest (>0.10) Wiberg bond orders for each atom

     #   Z sym  total        # sym  WBO       # sym  WBO       # sym  WBO
 ---------------------------------------------------------------------------
     1   6 C    3.876 --     6 C    0.985    15 H    0.966    16 H    0.965
                             2 N    0.903
     2   7 N    3.672 --     3 C    1.378     6 C    1.313     1 C    0.903
     3   6 C    3.743 --     2 N    1.378     4 N    1.036    18 H    0.953
                             6 C    0.278
     4   7 N    3.561 --     5 C    1.389     3 C    1.036    25 H    0.892
                            13 N    0.154
     5   6 C    3.802 --    13 N    2.177     4 N    1.389
     6   6 C    3.646 --     2 N    1.313     1 C    0.985    17 H    0.943
                             3 C    0.278
     7   6 C    3.950 --     9 N    2.083     8 O    1.783
     8   8 O    2.229 --     7 C    1.783     9 N    0.375
     9   7 N    3.476 --     7 C    2.083    10 C    1.015     8 O    0.375
    10   6 C    3.943 --     9 N    1.015    20 H    0.965    21 H    0.962
                            19 H    0.961
    11   6 C    2.604 --    12 O    2.594
    12   8 O    2.596 --    11 C    2.594
    13   7 N    3.465 --     5 C    2.177    14 C    1.033     4 N    0.154
    14   6 C    3.920 --    13 N    1.033    22 H    0.952    23 H    0.946
                            24 H    0.910
    15   1 H    0.986 --     1 C    0.966
    16   1 H    0.985 --     1 C    0.965
    17   1 H    0.984 --     6 C    0.943
    18   1 H    0.990 --     3 C    0.953
    19   1 H    0.991 --    10 C    0.961
    20   1 H    0.990 --    10 C    0.965
    21   1 H    0.991 --    10 C    0.962
    22   1 H    0.985 --    14 C    0.952
    23   1 H    0.980 --    14 C    0.946
    24   1 H    0.970 --    14 C    0.910
    25   1 H    0.937 --     4 N    0.892
 ---------------------------------------------------------------------------

molecular dipole:
                 x           y           z       tot (Debye)
 q only:        2.306      -2.048       0.072
   full:        2.254      -2.004       0.069       7.668

           -------------------------------------------------
          | TOTAL ENERGY              -41.964649676128 Eh   |
          | GRADIENT NORM               0.003929122132 Eh/α |
          | HOMO-LUMO GAP               2.182584328897 eV   |
           -------------------------------------------------

 * finished run on 2024/06/05 at 19:59:15.086
