   * xtb version 6.6.1 (8d0f1dd) compiled by 'conda@1efc2f54142f' on 2023-08-01
          program call               : xtb xtbopt.xyz --opt crude --input .xc2 --gfn2

   ID    Z sym.   atoms
    1    6 C      1, 3, 5-7, 10, 11, 14
    2    7 N      2, 4, 9, 13
    3    8 O      8, 12
    4    1 H      15-25

          :  Hamiltonian                  GFN2-xTB          :
 * total energy  :   -41.9646497 Eh     change        0.1421085E-13 Eh
 * total energy  :   -41.9646705 Eh     change       -0.2085783E-04 Eh
   *** GEOMETRY OPTIMIZATION CONVERGED AFTER 2 ITERATIONS ***

 final structure:
================
25
 xtb: 6.6.1 (8d0f1dd)
C            3.58976712422887        0.83870506714032        0.22941208085546
N            3.17957791736277       -0.54319994333060        0.07537017830027
C            3.63095564646219       -1.74121955118091       -0.15249794823971
N            2.75242049262791       -2.83266647833722       -0.25788613089364
C            1.47729338671456       -2.77219461722343       -0.12301859473028
C            2.23008671422125        0.30099140821473        0.38756639105755
C           -1.66136900298170        1.66464161513727        0.01581119549055
O           -0.97706917103926        0.71885154781726        0.09561607994019
N           -2.41173513009271        2.53333366633373       -0.23608919457674
C           -3.12479445101034        3.72204720406632        0.00586615402353
C           -3.63943753655214       -0.70173411622365       -0.46277356863290
O           -4.46140010646601        0.05901231686196       -0.61049342574138
N            0.31630379245298       -2.62064025477301       -0.30445765455416
C           -0.97455280317414       -2.55255223263443        0.22103778716784
H            4.17154434598418        1.09181720225774        1.10916288702872
H            3.90217155766257        1.35286646895208       -0.67575569520902
H            1.19892592049970        0.44409459962143        0.18119436379832
H            4.68061388021523       -1.93923872220288       -0.25062961429584
H           -2.44894214622048        4.57825247261551       -0.02117226649745
H           -3.87003100909262        3.82819804522641       -0.78205578169359
H           -3.62524392306982        3.68144731941936        0.97485182286885
H           -1.04251503561388       -2.97625279962671        1.22372949761501
H           -1.64596374069978       -3.07434005187374       -0.46014175438343
H           -1.27513237538884       -1.50120072900279        0.23966199971354
H            3.18895716706149       -3.74078089565933       -0.39113719051331

          :  Hamiltonian                  GFN2-xTB          :
         :: total energy             -41.964670550661 Eh    ::
         :: gradient norm              0.002039020085 Eh/a0 ::
         :: HOMO-LUMO gap              2.186167059632 eV    ::
         :: SCC energy               -42.619334187119 Eh    ::
         :: -> dispersion             -0.016325017023 Eh    ::
         :: repulsion energy           0.654650969775 Eh    ::

    * Orbital Energies and Occupations

         #    Occupation            Energy/Eh            Energy/eV
      -------------------------------------------------------------
         1        2.0000           -0.8756861             -23.8286
       ...           ...                  ...                  ...
        25        2.0000           -0.6510054             -17.7148
        26        2.0000           -0.6396531             -17.4058
        27        2.0000           -0.6197126             -16.8632
        28        2.0000           -0.6125172             -16.6674
        29        1.9999           -0.6090534             -16.5732
        30        1.9999           -0.6027824             -16.4025
        31        1.9999           -0.5978463             -16.2682
        32        1.9998           -0.5894672             -16.0402
        33        1.9996           -0.5759176             -15.6715
        34        1.9985           -0.5567602             -15.1502
        35        1.9906           -0.5271621             -14.3448
        36        1.9888           -0.5244125             -14.2700
        37        1.8088           -0.4779288             -13.0051 (HOMO)
        38        0.1118           -0.3975886             -10.8189 (LUMO)
        39        0.0753           -0.3910439             -10.6408
        40        0.0125           -0.3620591              -9.8521
        41        0.0121           -0.3615085              -9.8371
        42        0.0024           -0.3359248              -9.1410
        43        0.0001           -0.2884841              -7.8501
        44        0.0000           -0.2745395              -7.4706
        45        0.0000           -0.2385452              -6.4911
        46                         -0.1710606              -4.6548
        47                         -0.1076319              -2.9288
        48                         -0.0745626              -2.0290
       ...                                ...                  ...
        67                          1.2598534              34.2824
      -------------------------------------------------------------
                  HL-Gap            0.0803402 Eh            2.1862 eV

     #   Z          covCN         q      C6AA      α(0)
     1   6 C        3.736    -0.010    20.846     6.515
     2   7 N        2.733     0.078    19.891     6.624
     3   6 C        2.768    -0.007    28.171     8.692
     4   7 N        2.685    -0.036    21.936     6.956
     5   6 C        1.845     0.132    27.913     8.535
     6   6 C        2.818    -0.056    29.387     8.882
     7   6 C        1.769     0.301    24.431     7.991
     8   8 O        0.856    -0.340    20.522     6.074
     9   7 N        1.820    -0.148    24.986     7.406
    10   6 C        3.685    -0.029    21.289     6.606
    11   6 C        0.856     0.028    34.244     9.765
    12   8 O        0.856    -0.050    15.797     5.329
    13   7 N        1.821    -0.007    22.083     6.963
    14   6 C        3.687    -0.073    22.097     6.729
    15   1 H        0.925     0.080     1.976     2.198
    16   1 H        0.925     0.070     2.087     2.259
    17   1 H        0.927     0.115     1.654     2.011
    18   1 H        0.926     0.092     1.855     2.130
    19   1 H        0.924     0.080     1.978     2.199
    20   1 H        0.925     0.092     1.857     2.131
    21   1 H        0.924     0.078     1.998     2.211
    22   1 H        0.924     0.099     1.798     2.097
    23   1 H        0.925     0.123     1.588     1.970
    24   1 H        0.924     0.151     1.383     1.839
    25   1 H        0.860     0.235     0.942     1.521

Wiberg/Mayer (AO) data.
largest (>0.10) Wiberg bond orders for each atom

     #   Z sym  total        # sym  WBO       # sym  WBO       # sym  WBO
 ---------------------------------------------------------------------------
     1   6 C    3.876 --     6 C    0.985    15 H    0.966    16 H    0.965
                             2 N    0.903
     2   7 N    3.673 --     3 C    1.378     6 C    1.313     1 C    0.903
     3   6 C    3.743 --     2 N    1.378     4 N    1.036    18 H    0.953
                             6 C    0.278
     4   7 N    3.561 --     5 C    1.388     3 C    1.036    25 H    0.892
                            13 N    0.154
     5   6 C    3.803 --    13 N    2.177     4 N    1.388
     6   6 C    3.647 --     2 N    1.313     1 C    0.985    17 H    0.943
                             3 C    0.278
     7   6 C    3.950 --     9 N    2.083     8 O    1.783
     8   8 O    2.229 --     7 C    1.783     9 N    0.375
     9   7 N    3.476 --     7 C    2.083    10 C    1.015     8 O    0.375
    10   6 C    3.944 --     9 N    1.015    20 H    0.965    21 H    0.962
                            19 H    0.961
    11   6 C    2.604 --    12 O    2.594
    12   8 O    2.596 --    11 C    2.594
    13   7 N    3.466 --     5 C    2.177    14 C    1.033     4 N    0.154
    14   6 C    3.920 --    13 N    1.033    22 H    0.952    23 H    0.945
                            24 H    0.910
    15   1 H    0.986 --     1 C    0.966
    16   1 H    0.985 --     1 C    0.965
    17   1 H    0.984 --     6 C    0.943
    18   1 H    0.990 --     3 C    0.953
    19   1 H    0.991 --    10 C    0.961
    20   1 H    0.989 --    10 C    0.965
    21   1 H    0.991 --    10 C    0.962
    22   1 H    0.985 --    14 C    0.952
    23   1 H    0.980 --    14 C    0.945
    24   1 H    0.970 --    14 C    0.910
    25   1 H    0.937 --     4 N    0.892
 ---------------------------------------------------------------------------

molecular dipole:
                 x           y           z       tot (Debye)
 q only:        2.304      -2.048       0.068
   full:        2.262      -1.994       0.063       7.665

           -------------------------------------------------
          | TOTAL ENERGY              -41.964670550661 Eh   |
          | GRADIENT NORM               0.002039020085 Eh/α |
          | HOMO-LUMO GAP               2.186167059632 eV   |
           -------------------------------------------------

 * finished run on 2024/06/05 at 19:59:15.237
