   * xtb version 6.6.1 (8d0f1dd) compiled by 'conda@1efc2f54142f' on 2023-08-01
          program call               : xtb struc.xyz --opt loose --input .xc1 --gfn2

   ID    Z sym.   atoms
    1    6 C      1, 3, 5-7, 10, 11, 14
    2    7 N      2, 4, 9, 13
    3    8 O      8, 12
    4    1 H      15-25
constraining bond 7 13 to    5.9200000 Å, actual value:    2.8933564 Å

          :  Hamiltonian                  GFN2-xTB          :
 * total energy  :    -9.5348700 Eh     change       -0.6650680E-10 Eh
 * total energy  :   -21.4428384 Eh     change       -0.1190797E+02 Eh
 * total energy  :   -28.4335337 Eh     change       -0.6990695E+01 Eh
 * total energy  :   -33.0762575 Eh     change       -0.4642724E+01 Eh
 * total energy  :   -36.9859217 Eh     change       -0.3909664E+01 Eh
 * total energy  :   -39.4274292 Eh     change       -0.2441507E+01 Eh
 * total energy  :   -40.7820721 Eh     change       -0.1354643E+01 Eh
 * total energy  :   -41.3339761 Eh     change       -0.5519039E+00 Eh
 * total energy  :   -41.4669287 Eh     change       -0.1329526E+00 Eh
 * total energy  :   -41.5162929 Eh     change       -0.4936429E-01 Eh
 * total energy  :   -42.1055185 Eh     change       -0.1994617E-03 Eh
 * total energy  :   -42.1057464 Eh     change       -0.2279559E-03 Eh
 * total energy  :   -42.1058003 Eh     change       -0.5384781E-04 Eh
 * total energy  :   -42.1060688 Eh     change       -0.2685380E-03 Eh
 * total energy  :   -42.1061510 Eh     change       -0.8215834E-04 Eh
 * total energy  :   -42.1062026 Eh     change       -0.5158324E-04 Eh
 * total energy  :   -42.1062558 Eh     change       -0.5329910E-04 Eh
 * total energy  :   -42.1063084 Eh     change       -0.5250390E-04 Eh
 * total energy  :   -42.1063568 Eh     change       -0.4849289E-04 Eh
   *** GEOMETRY OPTIMIZATION CONVERGED AFTER 99 ITERATIONS ***

 final structure:
================
25
 xtb: 6.6.1 (8d0f1dd)
C            3.67755044503173        1.84950153032877       -0.22754368191200
N            2.83104337443459        0.71695636101666        0.03564358808115
C            3.22455084126215       -0.53252303481581        0.30646428776716
N            2.16169372971617       -1.33154150123932        0.50686497799120
C            1.04138980671726       -0.56552047574229        0.36053148912370
C            1.46975594710167        0.72331422083750        0.06696982208825
C            0.30711566812624        1.59373325067332       -0.09586409050381
O            0.22303894970725        2.77005302103776       -0.35054599505030
N           -0.77193170209924        0.72231887834523        0.12028245935635
C           -2.14123716871175        1.18058239535894        0.07986810962011
C           -0.41313203513121       -0.58799151096014        0.38889879176773
O           -1.18641226920353       -1.51536751259239        0.58631950143010
N           -3.24641092738609       -3.13316053906771       -0.37623087496055
C           -4.43018188527793       -2.84897291015382       -0.71797241294190
H            4.23708501433201        2.12277396050516        0.66845197001815
H            4.38356712609468        1.61893772591053       -1.02569864964049
H            3.05344616255569        2.69013610779343       -0.52582453786195
H            4.24741553632527       -0.85224076169284        0.35580924435973
H           -2.12572736786096        2.26917122236494        0.08384552868405
H           -2.63702461563322        0.83163157366399       -0.82750130043532
H           -2.67813112252905        0.81188417983091        0.95358426763144
H           -2.54674318351828       -2.47351087596774        0.01761589164590
H           -2.91761106625105       -4.09267872533609       -0.47132216058769
H           -4.80165775204134       -1.83415527825367       -0.61620807181443
H            2.19898000829404       -2.31509276025393        0.73473346406314

          :  Hamiltonian                  GFN2-xTB          :
         :: total energy             -42.106356846613 Eh    ::
         :: gradient norm              0.002732397318 Eh/a0 ::
         :: HOMO-LUMO gap              1.004222719522 eV    ::
         :: SCC energy               -42.638773213659 Eh    ::
         :: -> dispersion             -0.019870715071 Eh    ::
         :: repulsion energy           0.532415033256 Eh    ::

    * Orbital Energies and Occupations

         #    Occupation            Energy/Eh            Energy/eV
      -------------------------------------------------------------
         1        2.0000           -0.8911668             -24.2499
       ...           ...                  ...                  ...
        25        2.0000           -0.6532066             -17.7747
        26        2.0000           -0.6467102             -17.5979
        27        1.9999           -0.6327600             -17.2183
        28        1.9999           -0.6291853             -17.1210
        29        1.9999           -0.6261987             -17.0397
        30        1.9999           -0.6250130             -17.0075
        31        1.9997           -0.6077401             -16.5375
        32        1.9994           -0.5973303             -16.2542
        33        1.9981           -0.5790244             -15.7561
        34        1.9939           -0.5607838             -15.2597
        35        1.9874           -0.5493996             -14.9499
        36        1.9825           -0.5441332             -14.8066
        37        1.5067           -0.4868910             -13.2490 (HOMO)
        38        0.4580           -0.4499865             -12.2448 (LUMO)
        39        0.0590           -0.4138861             -11.2624
        40        0.0157           -0.3925431             -10.6816
        41        0.0001           -0.3095371              -8.4229
        42        0.0000           -0.2939977              -8.0001
        43                         -0.1893425              -5.1523
        44                         -0.1714791              -4.6662
        45                         -0.1339061              -3.6438
        46                         -0.0995344              -2.7085
        47                         -0.0561448              -1.5278
        48                         -0.0441353              -1.2010
       ...                                ...                  ...
        67                          0.5836384              15.8816
      -------------------------------------------------------------
                  HL-Gap            0.0369045 Eh            1.0042 eV

     #   Z          covCN         q      C6AA      α(0)
     1   6 C        3.691    -0.087    22.355     6.766
     2   7 N        2.826     0.083    19.803     6.609
     3   6 C        3.091     0.054    26.686     8.467
     4   7 N        2.786    -0.027    21.760     6.928
     5   6 C        3.182    -0.003    27.645     8.582
     6   6 C        3.213    -0.011    27.615     8.551
     7   6 C        2.821     0.265    22.542     7.779
     8   8 O        0.856    -0.348    20.665     6.095
     9   7 N        2.828    -0.095    23.094     7.137
    10   6 C        3.690    -0.052    21.696     6.666
    11   6 C        2.826     0.259    22.654     7.799
    12   8 O        0.856    -0.423    22.154     6.311
    13   7 N        2.628    -0.085    22.916     7.110
    14   6 C        1.835    -0.047    32.433     9.201
    15   1 H        0.924     0.106     1.735     2.060
    16   1 H        0.924     0.103     1.760     2.075
    17   1 H        0.925     0.122     1.594     1.975
    18   1 H        0.926     0.117     1.636     2.000
    19   1 H        0.925     0.103     1.756     2.072
    20   1 H        0.924     0.076     2.026     2.226
    21   1 H        0.925     0.083     1.951     2.184
    22   1 H        0.858     0.253     0.873     1.463
    23   1 H        0.860     0.227     0.977     1.549
    24   1 H        0.925     0.103     1.757     2.073
    25   1 H        0.860     0.225     0.986     1.556

Wiberg/Mayer (AO) data.
largest (>0.10) Wiberg bond orders for each atom

     #   Z sym  total        # sym  WBO       # sym  WBO       # sym  WBO
 ---------------------------------------------------------------------------
     1   6 C    3.926 --     2 N    0.988    17 H    0.971    16 H    0.964
                            15 H    0.959
     2   7 N    3.677 --     3 C    1.358     6 C    1.193     1 C    0.988
     3   6 C    3.880 --     2 N    1.358     4 N    1.327    18 H    0.953
     4   7 N    3.587 --     3 C    1.327     5 C    1.188    25 H    0.922
     5   6 C    3.834 --     6 C    1.364     4 N    1.188    11 C    1.053
     6   6 C    3.838 --     5 C    1.364     2 N    1.193     7 C    1.034
     7   6 C    3.873 --     8 O    1.697     9 N    1.078     6 C    1.034
     8   8 O    1.961 --     7 C    1.697     9 N    0.123
     9   7 N    3.538 --    11 C    1.136     7 C    1.078    10 C    0.986
                            12 O    0.129     8 O    0.123
    10   6 C    3.937 --     9 N    0.986    21 H    0.972    19 H    0.971
                            20 H    0.968
    11   6 C    3.851 --    12 O    1.581     9 N    1.136     5 C    1.053
    12   8 O    1.908 --    11 C    1.581     9 N    0.129
    13   7 N    3.609 --    14 C    1.843    23 H    0.913    22 H    0.826
    14   6 C    2.784 --    13 N    1.843    24 H    0.925
    15   1 H    0.986 --     1 C    0.959
    16   1 H    0.987 --     1 C    0.964
    17   1 H    0.985 --     1 C    0.971
    18   1 H    0.986 --     3 C    0.953
    19   1 H    0.988 --    10 C    0.971
    20   1 H    0.988 --    10 C    0.968
    21   1 H    0.989 --    10 C    0.972
    22   1 H    0.889 --    13 N    0.826
    23   1 H    0.932 --    13 N    0.913
    24   1 H    0.946 --    14 C    0.925
    25   1 H    0.949 --     4 N    0.922
 ---------------------------------------------------------------------------

molecular dipole:
                 x           y           z       tot (Debye)
 q only:        1.710      -2.197      -0.018
   full:        2.309      -2.319       0.196       8.332

           -------------------------------------------------
          | TOTAL ENERGY              -42.106356846613 Eh   |
          | GRADIENT NORM               0.002732397318 Eh/α |
          | HOMO-LUMO GAP               1.004222719522 eV   |
           -------------------------------------------------

 * finished run on 2024/06/05 at 19:59:17.509
