   * xtb version 6.6.1 (8d0f1dd) compiled by 'conda@1efc2f54142f' on 2023-08-01
          program call               : xtb xtbopt.xyz --opt crude --input .xc2 --gfn2

   ID    Z sym.   atoms
    1    7 N      1, 17
    2    6 C      2-6, 8, 9, 11-16, 18-23, 25, 26, 28-33
    3    8 O      7, 10, 24, 27
    4    1 H      34-72
########################################################################
[WARNING] Please study the warnings concerning your input carefully
-1- readin_getIntValue: could not parse ''
########################################################################

          :  Hamiltonian                  GFN2-xTB          :
 * total energy  :   -99.3962596 Eh     change       -0.9620749E-11 Eh
   *** GEOMETRY OPTIMIZATION CONVERGED AFTER 1 ITERATIONS ***

 final structure:
================
72
 xtb: 6.6.1 (8d0f1dd)
N           -0.98029189575241        3.04471498656923        1.16777362115334
C           -1.41948804372513        1.75664143862744        0.71383871504792
C           -2.83865750612294        1.66811169858328        0.05747288067067
C           -3.43515954045393        0.27597580481959        0.18075538414469
C           -4.28651521644120       -0.21585322176550       -0.81253104873610
C           -4.89139918996823       -1.45893173152058       -0.71808638981855
O           -5.70751943390224       -2.00091419281706       -1.64327003754066
C           -6.01268601608591       -1.28014724903295       -2.81354165168913
C           -4.66753782932307       -2.26424813301616        0.43146373620949
O           -5.29155748951352       -3.45513710807057        0.44058597055814
C           -5.14440429757140       -4.30053361484496        1.55814472685526
C           -3.85060296555731       -1.76298035529362        1.43263587069564
C           -3.25105135865671       -0.51836334877207        1.30933786251239
C           -2.48602654845299        2.02539980726798       -1.39616464752395
C           -1.27292102218232        1.15072830481962       -1.68436790624189
C           -0.42669148740488        1.28138955051725       -0.40457810710629
N            0.32565902106919        0.13016535140291        0.00481754019686
C            1.74238320667047        0.25552252506785        0.17097482361186
C            2.55452755530683        0.09534469346741       -1.13916473614109
C            4.01718255869786        0.20084568363030       -0.83771574009792
C            4.70886509364058        1.38893968183656       -1.02798630069552
C            6.05124625867181        1.49171177919058       -0.70025427906510
C            6.73312790493743        0.40822170036306       -0.16164310462849
O            8.02701086252500        0.39461483280494        0.20147745844796
C            8.80525503784200        1.55709909278676        0.03265109164881
C            6.03223110065857       -0.81557352356241        0.04123035572920
O            6.76577170442110       -1.81384310162992        0.56790411638154
C            6.15873004599686       -3.05921413034334        0.81904887698383
C            4.69154347361267       -0.89424929708573       -0.30085531850563
C           -0.18984931829501       -1.19280770881121       -0.20564786933914
C           -3.91078324253848        2.66593061641911        0.65741584119064
C           -4.16163826091842        2.40952283476919        2.14434938669138
C           -3.63070841708232        4.08037911364946        0.39259673183508
H           -4.49791339717918        0.38330040991441       -1.68134076175541
H           -6.52643823025346       -0.34111245148179       -2.58570378769210
H           -6.67898764271161       -1.92311497772325       -3.38517590462927
H           -5.11472529755838       -1.07447046023642       -3.40476366438943
H           -5.52274894180863       -3.82907344192940        2.46997429179910
H           -5.73926432291662       -5.18424703216100        1.33582491209864
H           -4.10012729156949       -4.59327671285235        1.70401441147067
H           -3.67492961043454       -2.33546274891104        2.32878434983992
H           -2.64116461853494       -0.18570689233780        2.13299144004855
H           -3.29244407798455        1.87657495359016       -2.10751341413079
H           -2.20217449640727        3.07843326244052       -1.43967957378538
H           -1.59116106964168        0.12210716520632       -1.83943949655727
H           -0.72234169743701        1.47809370725605       -2.56462184003451
H           -1.33501706883280        1.09155902354772        1.57271260565683
H            0.28954080663477        2.09610047992900       -0.53790388674248
H            2.07530548803413       -0.50932324684564        0.87826258453596
H            1.96054886387930        1.23353150185111        0.60533849391102
H            2.25330098661529        0.87027310277763       -1.84473299811744
H            2.32963802846803       -0.87922854927050       -1.57463754630898
H            4.20201484482805        2.24607330445324       -1.44402501710372
H            6.56216178860123        2.42596040211865       -0.86660577365858
H            8.41271925215483        2.39067391370752        0.62288570104933
H            8.86392605177557        1.84976753432988       -1.01988067503620
H            9.79938783112308        1.29725012127370        0.39136756080570
H            6.94186445888715       -3.68641927120852        1.24036050162424
H            5.34113443840827       -2.96701898645035        1.54083073895977
H            5.78497254765944       -3.51662087082985       -0.10198401710563
H            4.15336885716184       -1.81847842731618       -0.16021269593908
H           -0.03564472719068       -1.55257055690658       -1.23095808631031
H           -1.25579984341041       -1.21450932476954        0.01436803771957
H            0.31629638828976       -1.88019006786423        0.47142940665813
H           -4.82466295941279        2.40537793069951        0.10409198965779
H           -3.25999963628751        2.52991810021389        2.73616945513533
H           -4.54198262047003        1.40505614123325        2.29690291462298
H           -4.90492207238402        3.11135874343031        2.51210912466237
H           -0.91933493978438        3.73978465910579        0.43879415031275
H           -3.93270462215278        4.52886893462920       -0.53840405541837
H           -3.31328132515971        4.74051960209119        1.17824271166577
H           -1.50993927015409        3.40591776778900        1.94472480166853

          :  Hamiltonian                  GFN2-xTB          :
         :: total energy             -99.396259567265 Eh    ::
         :: gradient norm              0.005386784803 Eh/a0 ::
         :: HOMO-LUMO gap              0.842897306716 eV    ::
         :: SCC energy              -100.738142588158 Eh    ::
         :: -> dispersion             -0.076794739241 Eh    ::
         :: repulsion energy           1.340627622452 Eh    ::

    * Orbital Energies and Occupations

         #    Occupation            Energy/Eh            Energy/eV
      -------------------------------------------------------------
         1        2.0000           -0.8117923             -22.0900
       ...           ...                  ...                  ...
        78        1.9980           -0.5330404             -14.5048
        79        1.9978           -0.5313643             -14.4592
        80        1.9976           -0.5298232             -14.4172
        81        1.9971           -0.5271855             -14.3454
        82        1.9966           -0.5247206             -14.2784
        83        1.9951           -0.5186238             -14.1125
        84        1.9950           -0.5183075             -14.1039
        85        1.9744           -0.4924512             -13.4003
        86        1.9663           -0.4880119             -13.2795
        87        1.9373           -0.4779561             -13.0058
        88        1.8340           -0.4616606             -12.5624
        89        1.8150           -0.4597802             -12.5113
        90        1.6690           -0.4492371             -12.2244 (HOMO)
        91        0.8323           -0.4182612             -11.3815 (LUMO)
        92        0.0024           -0.3172033              -8.6315
        93        0.0022           -0.3154633              -8.5842
        94        0.0017           -0.3114843              -8.4759
        95        0.0014           -0.3088305              -8.4037
        96        0.0000           -0.1927903              -5.2461
        97        0.0000           -0.1866452              -5.0789
        98                         -0.1161556              -3.1608
        99                         -0.0818407              -2.2270
       100                         -0.0757333              -2.0608
       101                         -0.0638507              -1.7375
       ...                                ...                  ...
       171                          0.5764382              15.6857
      -------------------------------------------------------------
                  HL-Gap            0.0309759 Eh            0.8429 eV

     #   Z          covCN         q      C6AA      α(0)
     1   7 N        2.633    -0.309    27.950     7.852
     2   6 C        3.803     0.035    19.987     6.365
     3   6 C        3.916     0.003    20.477     6.432
     4   6 C        2.966     0.000    28.015     8.682
     5   6 C        2.922    -0.079    29.966     8.977
     6   6 C        2.861     0.132    25.117     8.215
     7   8 O        1.706    -0.225    17.730     5.685
     8   6 C        3.643     0.027    20.463     6.503
     9   6 C        2.864     0.133    25.096     8.212
    10   8 O        1.706    -0.221    17.670     5.675
    11   6 C        3.646     0.025    20.487     6.505
    12   6 C        2.913    -0.072    29.798     8.951
    13   6 C        2.923    -0.050    29.241     8.868
    14   6 C        3.839    -0.065    21.708     6.628
    15   6 C        3.821    -0.071    21.840     6.650
    16   6 C        3.811     0.019    20.244     6.404
    17   7 N        2.727    -0.092    23.037     7.128
    18   6 C        3.749    -0.009    20.793     6.503
    19   6 C        3.807    -0.072    21.863     6.656
    20   6 C        2.969     0.009    27.806     8.650
    21   6 C        2.921    -0.044    29.088     8.845
    22   6 C        2.913    -0.065    29.623     8.925
    23   6 C        2.864     0.135    25.040     8.202
    24   8 O        1.706    -0.215    17.575     5.660
    25   6 C        3.645     0.023    20.516     6.510
    26   6 C        2.862     0.135    25.040     8.202
    27   8 O        1.706    -0.219    17.636     5.670
    28   6 C        3.645     0.025    20.481     6.504
    29   6 C        2.920    -0.077    29.921     8.970
    30   6 C        3.694    -0.054    21.733     6.670
    31   6 C        3.851    -0.004    20.620     6.459
    32   6 C        3.756    -0.114    22.726     6.797
    33   6 C        2.838    -0.093    30.323     9.024
    34   1 H        0.926     0.053     2.277     2.360
    35   1 H        0.924     0.053     2.282     2.362
    36   1 H        0.925     0.083     1.951     2.184
    37   1 H        0.924     0.051     2.307     2.375
    38   1 H        0.924     0.057     2.240     2.340
    39   1 H        0.925     0.083     1.947     2.182
    40   1 H        0.924     0.054     2.275     2.359
    41   1 H        0.926     0.056     2.247     2.344
    42   1 H        0.926     0.050     2.320     2.382
    43   1 H        0.925     0.047     2.357     2.401
    44   1 H        0.924     0.045     2.381     2.413
    45   1 H        0.925     0.050     2.315     2.379
    46   1 H        0.925     0.047     2.363     2.404
    47   1 H        0.925     0.060     2.197     2.318
    48   1 H        0.924     0.064     2.154     2.295
    49   1 H        0.924     0.056     2.245     2.343
    50   1 H        0.924     0.059     2.206     2.323
    51   1 H        0.924     0.050     2.320     2.382
    52   1 H        0.924     0.054     2.265     2.354
    53   1 H        0.926     0.052     2.297     2.370
    54   1 H        0.926     0.061     2.189     2.314
    55   1 H        0.924     0.058     2.227     2.334
    56   1 H        0.924     0.059     2.214     2.327
    57   1 H        0.925     0.084     1.936     2.176
    58   1 H        0.925     0.083     1.944     2.181
    59   1 H        0.924     0.052     2.290     2.367
    60   1 H        0.924     0.055     2.253     2.347
    61   1 H        0.926     0.052     2.292     2.367
    62   1 H        0.924     0.048     2.341     2.393
    63   1 H        0.925     0.062     2.176     2.307
    64   1 H        0.925     0.060     2.201     2.320
    65   1 H        0.923     0.064     2.156     2.296
    66   1 H        0.925     0.045     2.378     2.411
    67   1 H        0.925     0.049     2.327     2.385
    68   1 H        0.925     0.053     2.287     2.365
    69   1 H        0.860     0.158     1.350     1.820
    70   1 H        0.926     0.052     2.291     2.367
    71   1 H        0.926     0.057     2.236     2.338
    72   1 H        0.860     0.168     1.283     1.774

Wiberg/Mayer (AO) data.
largest (>0.10) Wiberg bond orders for each atom

     #   Z sym  total        # sym  WBO       # sym  WBO       # sym  WBO
 ---------------------------------------------------------------------------
     1   7 N    3.031 --     2 C    1.047    69 H    0.952    72 H    0.944
     2   6 C    3.940 --     1 N    1.047    47 H    0.950    16 C    0.934
                             3 C    0.931
     3   6 C    3.899 --     4 C    0.995    14 C    0.983     2 C    0.931
                            31 C    0.881
     4   6 C    3.938 --    13 C    1.390     5 C    1.374     3 C    0.995
     5   6 C    3.952 --     6 C    1.396     4 C    1.374    34 H    0.953
     6   6 C    3.893 --     5 C    1.396     9 C    1.215     7 O    1.104
     7   8 O    2.251 --     6 C    1.104     8 C    0.978
     8   6 C    3.930 --     7 O    0.978    36 H    0.976    37 H    0.973
                            35 H    0.972
     9   6 C    3.887 --    12 C    1.381     6 C    1.215    10 O    1.112
    10   8 O    2.253 --     9 C    1.112    11 C    0.976
    11   6 C    3.928 --    39 H    0.977    10 O    0.976    40 H    0.973
                            38 H    0.972
    12   6 C    3.957 --    13 C    1.415     9 C    1.381    41 H    0.963
    13   6 C    3.938 --    12 C    1.415     4 C    1.390    42 H    0.958
    14   6 C    3.986 --    15 C    1.007     3 C    0.983    44 H    0.968
                            43 H    0.966
    15   6 C    3.977 --    14 C    1.007    16 C    0.977    46 H    0.976
                            45 H    0.971
    16   6 C    3.961 --    17 N    1.015    15 C    0.977    48 H    0.958
                             2 C    0.934
    17   7 N    3.142 --    18 C    1.021    30 C    1.020    16 C    1.015
    18   6 C    3.960 --    17 N    1.021    50 H    0.967    49 H    0.964
                            19 C    0.948
    19   6 C    3.959 --    20 C    1.019    51 H    0.973    52 H    0.967
                            18 C    0.948
    20   6 C    3.925 --    21 C    1.391    29 C    1.377    19 C    1.019
    21   6 C    3.926 --    22 C    1.423    20 C    1.391    53 H    0.967
    22   6 C    3.948 --    21 C    1.423    23 C    1.374    54 H    0.962
    23   6 C    3.871 --    22 C    1.374    26 C    1.207    24 O    1.117
    24   8 O    2.247 --    23 C    1.117    25 C    0.975
    25   6 C    3.925 --    57 H    0.976    24 O    0.975    55 H    0.971
                            56 H    0.971
    26   6 C    3.881 --    29 C    1.393    23 C    1.207    27 O    1.110
    27   8 O    2.249 --    26 C    1.110    28 C    0.977
    28   6 C    3.929 --    27 O    0.977    58 H    0.976    59 H    0.972
                            60 H    0.972
    29   6 C    3.949 --    26 C    1.393    20 C    1.377    61 H    0.961
    30   6 C    3.965 --    17 N    1.020    64 H    0.975    63 H    0.966
                            62 H    0.959
    31   6 C    3.973 --    33 C    1.115    32 C    0.999    65 H    0.927
                             3 C    0.881
    32   6 C    3.979 --    31 C    0.999    68 H    0.983    66 H    0.979
                            67 H    0.976
    33   6 C    3.175 --    31 C    1.115    70 H    0.981    71 H    0.979
    34   1 H    0.996 --     5 C    0.953
    35   1 H    0.992 --     8 C    0.972
    36   1 H    0.992 --     8 C    0.976
    37   1 H    0.992 --     8 C    0.973
    38   1 H    0.991 --    11 C    0.972
    39   1 H    0.992 --    11 C    0.977
    40   1 H    0.991 --    11 C    0.973
    41   1 H    0.995 --    12 C    0.963
    42   1 H    0.996 --    13 C    0.958
    43   1 H    0.994 --    14 C    0.966
    44   1 H    0.997 --    14 C    0.968
    45   1 H    0.996 --    15 C    0.971
    46   1 H    0.995 --    15 C    0.976
    47   1 H    0.992 --     2 C    0.950
    48   1 H    0.993 --    16 C    0.958
    49   1 H    0.990 --    18 C    0.964
    50   1 H    0.992 --    18 C    0.967
    51   1 H    0.996 --    19 C    0.973
    52   1 H    0.994 --    19 C    0.967
    53   1 H    0.996 --    21 C    0.967
    54   1 H    0.994 --    22 C    0.962
    55   1 H    0.989 --    25 C    0.971
    56   1 H    0.989 --    25 C    0.971
    57   1 H    0.992 --    25 C    0.976
    58   1 H    0.992 --    28 C    0.976
    59   1 H    0.991 --    28 C    0.972
    60   1 H    0.991 --    28 C    0.972
    61   1 H    0.996 --    29 C    0.961
    62   1 H    0.972 --    30 C    0.959
    63   1 H    0.990 --    30 C    0.966
    64   1 H    0.991 --    30 C    0.975
    65   1 H    0.964 --    31 C    0.927
    66   1 H    0.997 --    32 C    0.979
    67   1 H    0.995 --    32 C    0.976
    68   1 H    0.996 --    32 C    0.983
    69   1 H    0.974 --     1 N    0.952
    70   1 H    0.995 --    33 C    0.981
    71   1 H    0.995 --    33 C    0.979
    72   1 H    0.969 --     1 N    0.944
 ---------------------------------------------------------------------------

molecular dipole:
                 x           y           z       tot (Debye)
 q only:        0.148       0.506       0.064
   full:       -0.211       0.754      -0.109       2.008

           -------------------------------------------------
          | TOTAL ENERGY              -99.396259567265 Eh   |
          | GRADIENT NORM               0.005386784803 Eh/α |
          | HOMO-LUMO GAP               0.842897306716 eV   |
           -------------------------------------------------

 * finished run on 2024/04/06 at 11:15:29.918
