   * xtb version 6.6.1 (8d0f1dd) compiled by 'conda@1efc2f54142f' on 2023-08-01
          program call               : xtb xtbopt.xyz --opt crude --input .xc2 --gfn2

   ID    Z sym.   atoms
    1    6 C      1, 3, 5-7, 10, 11, 14
    2    7 N      2, 4, 9, 13
    3    8 O      8, 12
    4    1 H      15-25

          :  Hamiltonian                  GFN2-xTB          :
 * total energy  :   -42.1082338 Eh     change       -0.5172751E-11 Eh
   *** GEOMETRY OPTIMIZATION CONVERGED AFTER 1 ITERATIONS ***

 final structure:
================
25
 xtb: 6.6.1 (8d0f1dd)
C            3.13669922135235        0.92597296690728        0.26809587745221
N            2.24501239511864       -0.05334985772019        0.18119975865337
C            2.47334553948465       -1.38702929734181        0.17278130136541
N            1.29393262489489       -2.06114631460174        0.09878316173321
C            0.28727813533324       -1.14814946299518        0.05668589494737
C            0.86512478434052        0.11035821448850        0.10096763144908
C            0.07443617236141        1.31944602825078        0.05986648390660
O            0.50601104643244        2.44743264073456        0.07746998120121
N           -1.28937429859422        1.02797103947298       -0.00803767638505
C           -2.21396368107029        2.15168711140103       -0.05726830616744
C           -1.89125920321115       -0.21582721597898       -0.03131435325829
O           -3.08133128033578       -0.35452145856185       -0.07548461324609
N           -1.03979492277559       -1.34380464463598       -0.00371028576583
C           -1.63056979250424       -2.66691416246490       -0.02234928990767
H            4.17907761156004        0.68859783084693        0.35753832188670
H            4.52872048240655        3.04175318489897       -1.43227769314663
H            2.78359274515409        1.94039758424500        0.27602021608510
H            3.44026959090326       -1.84434713332462        0.22452901644781
H           -1.63126801707634        3.06966790852442       -0.06462435009772
H           -2.82880985125919        2.08346728720137       -0.95445225260331
H           -2.87255071447803        2.12877627252309        0.81092727122217
H           -1.35514204444871       -3.22042713936542        0.87572831042660
H           -1.31793696942048       -3.21436638810882       -0.91197237553403
H           -2.71269227722267       -2.54140491094375       -0.04473968911319
H            1.21162421715459       -3.06600154185160        0.07680927634839

          :  Hamiltonian                  GFN2-xTB          :
         :: total energy             -42.108233768755 Eh    ::
         :: gradient norm              0.002998621660 Eh/a0 ::
         :: HOMO-LUMO gap              0.325599409110 eV    ::
         :: SCC energy               -42.632149793122 Eh    ::
         :: -> dispersion             -0.022756221308 Eh    ::
         :: repulsion energy           0.523818016195 Eh    ::

    * Orbital Energies and Occupations

         #    Occupation            Energy/Eh            Energy/eV
      -------------------------------------------------------------
         1        2.0000           -0.9103750             -24.7726
       ...           ...                  ...                  ...
        25        1.9999           -0.6676910             -18.1688
        26        1.9999           -0.6674204             -18.1614
        27        1.9999           -0.6582252             -17.9112
        28        1.9995           -0.6364097             -17.3176
        29        1.9994           -0.6320642             -17.1993
        30        1.9991           -0.6264830             -17.0475
        31        1.9986           -0.6187660             -16.8375
        32        1.9955           -0.6001636             -16.3313
        33        1.9850           -0.5809447             -15.8083
        34        1.9568           -0.5640021             -15.3473
        35        1.9516           -0.5621376             -15.2965
        36        1.9448           -0.5600146             -15.2388
        37        1.2659           -0.5122399             -13.9388 (HOMO)
        38        0.8950           -0.5002744             -13.6132 (LUMO)
        39        0.0056           -0.4104434             -11.1687
        40        0.0031           -0.4011778             -10.9166
        41        0.0004           -0.3679620             -10.0128
        42        0.0000           -0.2862613              -7.7896
        43                         -0.2064306              -5.6173
        44                         -0.1849912              -5.0339
        45                         -0.1431230              -3.8946
        46                         -0.1148295              -3.1247
        47                         -0.0815665              -2.2195
        48                         -0.0499157              -1.3583
       ...                                ...                  ...
        67                          0.5546794              15.0936
      -------------------------------------------------------------
                  HL-Gap            0.0119656 Eh            0.3256 eV

     #   Z          covCN         q      C6AA      α(0)
     1   6 C        2.790    -0.071    29.749     8.935
     2   7 N        2.808     0.130    19.025     6.478
     3   6 C        3.044     0.025    27.403     8.586
     4   7 N        2.779    -0.058    22.359     7.023
     5   6 C        3.024     0.119    25.350     8.259
     6   6 C        3.113    -0.038    28.794     8.790
     7   6 C        2.764     0.275    22.356     7.743
     8   8 O        0.858    -0.359    20.872     6.125
     9   7 N        2.746    -0.081    22.812     7.094
    10   6 C        3.710    -0.062    21.837     6.678
    11   6 C        2.728     0.318    21.594     7.608
    12   8 O        0.860    -0.350    20.709     6.101
    13   7 N        2.738    -0.053    22.273     7.009
    14   6 C        3.696    -0.073    22.072     6.720
    15   1 H        0.926     0.108     1.715     2.048
    16   1 H        0.000     0.061     5.452     4.269
    17   1 H        0.926     0.138     1.475     1.899
    18   1 H        0.926     0.121     1.606     1.981
    19   1 H        0.925     0.116     1.647     2.007
    20   1 H        0.925     0.103     1.757     2.073
    21   1 H        0.925     0.103     1.757     2.073
    22   1 H        0.924     0.085     1.928     2.171
    23   1 H        0.924     0.086     1.919     2.166
    24   1 H        0.925     0.129     1.542     1.942
    25   1 H        0.860     0.228     0.973     1.545

Wiberg/Mayer (AO) data.
largest (>0.10) Wiberg bond orders for each atom

     #   Z sym  total        # sym  WBO       # sym  WBO       # sym  WBO
 ---------------------------------------------------------------------------
     1   6 C    3.408 --     2 N    1.332    15 H    0.967    17 H    0.955
     2   7 N    3.765 --     1 C    1.332     3 C    1.246     6 C    1.090
     3   6 C    3.642 --     2 N    1.246     4 N    1.241    18 H    0.955
     4   7 N    3.527 --     3 C    1.241     5 C    1.194    25 H    0.920
     5   6 C    3.938 --     6 C    1.348    13 N    1.218     4 N    1.194
     6   6 C    3.846 --     5 C    1.348     2 N    1.090     7 C    1.084
     7   6 C    3.959 --     8 O    1.685     9 N    1.094     6 C    1.084
     8   8 O    2.020 --     7 C    1.685     9 N    0.139
     9   7 N    3.532 --    11 C    1.126     7 C    1.094    10 C    0.972
                             8 O    0.139    12 O    0.133
    10   6 C    3.899 --     9 N    0.972    19 H    0.966    20 H    0.959
                            21 H    0.957
    11   6 C    3.958 --    12 O    1.706     9 N    1.126    13 N    1.034
    12   8 O    2.046 --    11 C    1.706     9 N    0.133    13 N    0.118
    13   7 N    3.531 --     5 C    1.218    11 C    1.034    14 C    0.975
                            12 O    0.118
    14   6 C    3.919 --    13 N    0.975    22 H    0.968    23 H    0.968
                            24 H    0.963
    15   1 H    0.987 --     1 C    0.967
    16   1 H    0.017
    17   1 H    0.980 --     1 C    0.955
    18   1 H    0.984 --     3 C    0.955
    19   1 H    0.983 --    10 C    0.966
    20   1 H    0.978 --    10 C    0.959
    21   1 H    0.977 --    10 C    0.957
    22   1 H    0.986 --    14 C    0.968
    23   1 H    0.986 --    14 C    0.968
    24   1 H    0.982 --    14 C    0.963
    25   1 H    0.947 --     4 N    0.920
 ---------------------------------------------------------------------------

molecular dipole:
                 x           y           z       tot (Debye)
 q only:        2.341      -1.934       0.036
   full:        2.614      -2.408       0.048       9.034

           -------------------------------------------------
          | TOTAL ENERGY              -42.108233768755 Eh   |
          | GRADIENT NORM               0.002998621660 Eh/α |
          | HOMO-LUMO GAP               0.325599409110 eV   |
           -------------------------------------------------

 * finished run on 2024/06/05 at 19:57:52.180
