   * xtb version 6.6.1 (8d0f1dd) compiled by 'conda@1efc2f54142f' on 2023-08-01
          program call               : xtb struc.xyz --opt loose --input .xc1 --gfn2

   ID    Z sym.   atoms
    1    6 C      1, 3, 5-7, 10, 11, 14
    2    7 N      2, 4, 9, 13
    3    8 O      8, 12
    4    1 H      15-25
constraining bond 12 14 to    5.7600000 Å, actual value:    2.7358220 Å

          :  Hamiltonian                  GFN2-xTB          :
 * total energy  :    23.0715667 Eh     change       -0.6650680E-10 Eh
 * total energy  :    -3.2873877 Eh     change       -0.2635895E+02 Eh
 * total energy  :   -21.3005132 Eh     change       -0.1801313E+02 Eh
 * total energy  :   -33.1722676 Eh     change       -0.1187175E+02 Eh
 * total energy  :   -39.4567712 Eh     change       -0.6284504E+01 Eh
 * total energy  :   -41.4702159 Eh     change       -0.2013445E+01 Eh
 * total energy  :   -41.6466503 Eh     change       -0.1764343E+00 Eh
 * total energy  :   -41.6506816 Eh     change       -0.4031366E-02 Eh
 * total energy  :   -41.6628881 Eh     change       -0.1220646E-01 Eh
 * total energy  :   -41.6607359 Eh     change        0.2152171E-02 Eh
 * total energy  :   -42.1637005 Eh     change       -0.1232640E-02 Eh
 * total energy  :   -42.1644162 Eh     change       -0.7156656E-03 Eh
 * total energy  :   -42.1648424 Eh     change       -0.4262588E-03 Eh
 * total energy  :   -42.1651060 Eh     change       -0.2635266E-03 Eh
 * total energy  :   -42.1652517 Eh     change       -0.1457084E-03 Eh
 * total energy  :   -42.1653748 Eh     change       -0.1231273E-03 Eh
 * total energy  :   -42.1654370 Eh     change       -0.6217324E-04 Eh
 * total energy  :   -42.1654743 Eh     change       -0.3729282E-04 Eh
 * total energy  :   -42.1654975 Eh     change       -0.2317394E-04 Eh
   *** GEOMETRY OPTIMIZATION CONVERGED AFTER 74 ITERATIONS ***

 final structure:
================
25
 xtb: 6.6.1 (8d0f1dd)
C            3.10671088316856        1.23680092832597        0.17788649660030
N            2.24513050834452        0.08641280689377        0.10698348800220
C            2.61398350778421       -1.19217023325796        0.13403882161912
N            1.52003544903294       -1.98638330652216        0.05224160972022
C            0.42055805749241       -1.18019059856490       -0.02698322984656
C            0.87504321732565        0.12771421933708        0.00922574931573
C           -0.03504914886949        1.25305640830798       -0.10051705998411
O            0.26691166401614        2.41605100581189       -0.17052933780961
N           -1.37238223702358        0.78700179739235       -0.15318682137100
C           -2.38807181763258        1.86725082831818       -0.29014870327801
C           -1.80092670615298       -0.47630917403763       -0.17731233118237
O           -2.47838154302400        2.67629910258013        0.81951049582396
N           -0.89781476338986       -1.48244567839839       -0.13070809483325
C           -1.32478234135927       -2.87106011054005       -0.21374461024267
H            3.61344347299323        1.27186295239890        1.14298059486577
H            3.85716295921850        1.19683480206326       -0.61137422563775
H            2.50046979792720        2.13435203242444        0.05837821042438
H            3.62252864408594       -1.54664301083342        0.20655716384918
H           -2.05521068265656        2.50706299259109       -1.11428386448039
H           -3.32754520669869        1.36627609553530       -0.54872825121969
H           -3.00278563021226        2.26567136166110        1.51905859293127
H           -1.02455402779560       -3.41578273685740        0.68177402389636
H           -0.89971462498865       -3.34611352220850       -1.09803957581388
H           -2.40914090719393       -2.88126391198582       -0.29002084347849
H            1.53481298971608       -2.99604650883411        0.04811332003070

          :  Hamiltonian                  GFN2-xTB          :
         :: total energy             -42.165497452328 Eh    ::
         :: gradient norm              0.002454338206 Eh/a0 ::
         :: HOMO-LUMO gap              2.186012715073 eV    ::
         :: SCC energy               -42.668797110189 Eh    ::
         :: -> dispersion             -0.022283704216 Eh    ::
         :: repulsion energy           0.503182696102 Eh    ::

    * Orbital Energies and Occupations

         #    Occupation            Energy/Eh            Energy/eV
      -------------------------------------------------------------
         1        2.0000           -0.9079079             -24.7054
       ...           ...                  ...                  ...
        25        2.0000           -0.6683687             -18.1872
        26        2.0000           -0.6562549             -17.8576
        27        2.0000           -0.6517755             -17.7357
        28        1.9999           -0.6298172             -17.1382
        29        1.9999           -0.6266557             -17.0522
        30        1.9999           -0.6244886             -16.9932
        31        1.9997           -0.6143416             -16.7171
        32        1.9994           -0.6005417             -16.3416
        33        1.9971           -0.5755154             -15.6606
        34        1.9958           -0.5698925             -15.5076
        35        1.9906           -0.5569812             -15.1562
        36        1.9870           -0.5517960             -15.0151
        37        1.8503           -0.5120097             -13.9325 (HOMO)
        38        0.1436           -0.4316752             -11.7465 (LUMO)
        39        0.0296           -0.4057409             -11.0408
        40        0.0073           -0.3833321             -10.4310
        41        0.0000           -0.2847989              -7.7498
        42                         -0.1958588              -5.3296
        43                         -0.1899807              -5.1696
        44                         -0.1357322              -3.6935
        45                         -0.1345627              -3.6616
        46                         -0.0729459              -1.9850
        47                         -0.0464795              -1.2648
        48                         -0.0315954              -0.8598
       ...                                ...                  ...
        67                          0.5504024              14.9772
      -------------------------------------------------------------
                  HL-Gap            0.0803345 Eh            2.1860 eV

     #   Z          covCN         q      C6AA      α(0)
     1   6 C        3.691    -0.091    22.440     6.779
     2   7 N        2.831     0.073    19.966     6.636
     3   6 C        3.052     0.050    26.830     8.495
     4   7 N        2.793    -0.065    22.499     7.045
     5   6 C        3.054     0.106    25.610     8.299
     6   6 C        3.120    -0.010    28.092     8.681
     7   6 C        2.765     0.269    22.457     7.761
     8   8 O        0.857    -0.349    20.681     6.097
     9   7 N        2.746    -0.048    22.162     6.992
    10   6 C        3.628     0.132    18.826     6.250
    11   6 C        1.885    -0.084    33.438     9.339
    12   8 O        1.657    -0.384    20.538     6.118
    13   7 N        2.742     0.024    20.826     6.778
    14   6 C        3.700    -0.078    22.161     6.732
    15   1 H        0.924     0.105     1.739     2.062
    16   1 H        0.925     0.104     1.750     2.069
    17   1 H        0.925     0.135     1.496     1.913
    18   1 H        0.926     0.120     1.610     1.984
    19   1 H        0.924     0.100     1.781     2.087
    20   1 H        0.924     0.072     2.065     2.247
    21   1 H        0.805     0.315     0.677     1.292
    22   1 H        0.924     0.080     1.980     2.200
    23   1 H        0.925     0.081     1.973     2.196
    24   1 H        0.925     0.117     1.641     2.003
    25   1 H        0.860     0.226     0.983     1.553

Wiberg/Mayer (AO) data.
largest (>0.10) Wiberg bond orders for each atom

     #   Z sym  total        # sym  WBO       # sym  WBO       # sym  WBO
 ---------------------------------------------------------------------------
     1   6 C    3.917 --     2 N    0.986    16 H    0.962    17 H    0.961
                            15 H    0.959
     2   7 N    3.660 --     3 C    1.377     6 C    1.161     1 C    0.986
     3   6 C    3.825 --     2 N    1.377     4 N    1.269    18 H    0.954
     4   7 N    3.572 --     3 C    1.269     5 C    1.185    25 H    0.921
     5   6 C    3.936 --     6 C    1.369     4 N    1.185    13 N    1.179
     6   6 C    3.917 --     5 C    1.369     2 N    1.161     7 C    1.071
     7   6 C    3.928 --     8 O    1.721     6 C    1.071     9 N    1.040
     8   8 O    2.045 --     7 C    1.721     9 N    0.128
     9   7 N    3.613 --    11 C    1.386     7 C    1.040    10 C    0.918
                             8 O    0.128
    10   6 C    3.922 --    12 O    1.055    20 H    0.960    19 H    0.951
                             9 N    0.918
    11   6 C    2.861 --     9 N    1.386    13 N    1.273
    12   8 O    2.023 --    10 C    1.055    21 H    0.885
    13   7 N    3.629 --    11 C    1.273     5 C    1.179    14 C    0.980
    14   6 C    3.938 --    13 N    0.980    24 H    0.973    22 H    0.972
                            23 H    0.971
    15   1 H    0.985 --     1 C    0.959
    16   1 H    0.986 --     1 C    0.962
    17   1 H    0.981 --     1 C    0.961
    18   1 H    0.984 --     3 C    0.954
    19   1 H    0.987 --    10 C    0.951
    20   1 H    0.991 --    10 C    0.960
    21   1 H    0.900 --    12 O    0.885
    22   1 H    0.991 --    14 C    0.972
    23   1 H    0.991 --    14 C    0.971
    24   1 H    0.986 --    14 C    0.973
    25   1 H    0.948 --     4 N    0.921
 ---------------------------------------------------------------------------

molecular dipole:
                 x           y           z       tot (Debye)
 q only:        1.615      -2.625       0.127
   full:        2.120      -3.218       0.212       9.809

           -------------------------------------------------
          | TOTAL ENERGY              -42.165497452328 Eh   |
          | GRADIENT NORM               0.002454338206 Eh/α |
          | HOMO-LUMO GAP               2.186012715073 eV   |
           -------------------------------------------------

 * finished run on 2024/06/05 at 20:00:20.056
