   * xtb version 6.6.1 (8d0f1dd) compiled by 'conda@1efc2f54142f' on 2023-08-01
          program call               : xtb struc.xyz --opt loose --input .xc1 --gfn2

   ID    Z sym.   atoms
    1    6 C      1, 3, 5-7, 10, 11, 14
    2    7 N      2, 4, 9, 13
    3    8 O      8, 12
    4    1 H      15-25
constraining bond 5 8 to    5.7600000 Å, actual value:    3.6017282 Å

          :  Hamiltonian                  GFN2-xTB          :
 * total energy  :   -33.9306055 Eh     change       -0.6650680E-10 Eh
 * total energy  :   -37.4309581 Eh     change       -0.3500353E+01 Eh
 * total energy  :   -39.9002756 Eh     change       -0.2469317E+01 Eh
 * total energy  :   -41.2130611 Eh     change       -0.1312785E+01 Eh
 * total energy  :   -41.6609210 Eh     change       -0.4478599E+00 Eh
 * total energy  :   -41.7160595 Eh     change       -0.5513849E-01 Eh
 * total energy  :   -41.7366060 Eh     change       -0.2054654E-01 Eh
 * total energy  :   -41.7768331 Eh     change       -0.4022709E-01 Eh
 * total energy  :   -41.7907850 Eh     change       -0.1395185E-01 Eh
 * total energy  :   -41.8057440 Eh     change       -0.1495905E-01 Eh
 * total energy  :   -42.0338734 Eh     change       -0.1821051E-03 Eh
 * total energy  :   -42.0340400 Eh     change       -0.1665351E-03 Eh
 * total energy  :   -42.0341622 Eh     change       -0.1222421E-03 Eh
 * total energy  :   -42.0342305 Eh     change       -0.6828789E-04 Eh
 * total energy  :   -42.0342214 Eh     change        0.9072886E-05 Eh
 * total energy  :   -42.0343729 Eh     change       -0.1515144E-03 Eh
 * total energy  :   -42.0344337 Eh     change       -0.6072011E-04 Eh
 * total energy  :   -42.0345203 Eh     change       -0.8661574E-04 Eh
 * total energy  :   -42.0345503 Eh     change       -0.3000356E-04 Eh
   *** GEOMETRY OPTIMIZATION CONVERGED AFTER 85 ITERATIONS ***

 final structure:
================
25
 xtb: 6.6.1 (8d0f1dd)
C            3.14360910032823        1.03640605239167        0.06464378484049
N            2.25421824594517       -0.09066321502257        0.02404240394944
C            2.56832227443441       -1.38158343588179       -0.01886209240920
N            1.44351880859244       -2.13629589505864       -0.03226126262230
C            0.37610476583444       -1.29627995519650        0.00642767258523
C            0.88009163600930        0.01707046215703        0.04210859396119
C            0.05425524600884        1.12435620292356        0.06029337443935
O           -0.85414594062789        4.33081409421419       -0.08414379356080
N           -1.27790074549494        0.86326543650800        0.05764927833799
C           -2.13996222024788        1.86832374669798        0.05318669187693
C           -1.84775996799213       -0.48217789276461        0.05419692872236
O           -3.03392953571094       -0.64069191203427        0.08084873686666
N           -0.95170923563821       -1.54197900436230        0.01264042314291
C           -1.47239104392782       -2.89805391009898       -0.03024515469441
H            3.49008219319179        1.21246238257834        1.08508388934672
H            4.00551873330624        0.86504721338558       -0.57820998017477
H            2.59392656449072        1.91627921101292       -0.26860234915755
H            3.56324378666400       -1.78079701454529       -0.04372334597576
H           -1.30570657937779        5.13287409893229       -0.35155879793054
H           -3.19546542623988        1.65415183213919        0.04938092180716
H           -1.71528558785316        2.89145797737780        0.03405029263247
H           -1.09438635087153       -3.47488954272821        0.81407495782424
H           -1.19493071891565       -3.37957200018033       -0.96886011437072
H           -2.55795409424649       -2.84429839245774        0.03288005626265
H            1.42906760643210       -3.14698799835881       -0.06386949780436

          :  Hamiltonian                  GFN2-xTB          :
         :: total energy             -42.034550291426 Eh    ::
         :: gradient norm              0.002841600772 Eh/a0 ::
         :: HOMO-LUMO gap              0.487650274653 eV    ::
         :: SCC energy               -42.548848862138 Eh    ::
         :: -> dispersion             -0.021548955683 Eh    ::
         :: repulsion energy           0.514232805667 Eh    ::

    * Orbital Energies and Occupations

         #    Occupation            Energy/Eh            Energy/eV
      -------------------------------------------------------------
         1        2.0000           -0.9098584             -24.7585
       ...           ...                  ...                  ...
        25        2.0000           -0.6583070             -17.9134
        26        2.0000           -0.6574642             -17.8905
        27        1.9998           -0.6349247             -17.2772
        28        1.9998           -0.6301818             -17.1481
        29        1.9997           -0.6276599             -17.0795
        30        1.9996           -0.6216698             -16.9165
        31        1.9995           -0.6166462             -16.7798
        32        1.9985           -0.5999109             -16.3244
        33        1.9973           -0.5903444             -16.0641
        34        1.9904           -0.5703306             -15.5195
        35        1.6731           -0.5117527             -13.9255
        36        1.6247           -0.5091052             -13.8535
        37        1.5615           -0.5060133             -13.7693 (HOMO)
        38        1.0691           -0.4880925             -13.2817 (LUMO)
        39        0.0739           -0.4342812             -11.8174
        40        0.0108           -0.4032399             -10.9727
        41        0.0025           -0.3797941             -10.3347
        42        0.0000           -0.2876872              -7.8284
        43                         -0.2080097              -5.6602
        44                         -0.1966983              -5.3524
        45                         -0.1520599              -4.1378
        46                         -0.1196960              -3.2571
        47                         -0.0805555              -2.1920
        48                         -0.0572735              -1.5585
       ...                                ...                  ...
        67                          0.5276676              14.3586
      -------------------------------------------------------------
                  HL-Gap            0.0179208 Eh            0.4877 eV

     #   Z          covCN         q      C6AA      α(0)
     1   6 C        3.692    -0.093    22.465     6.782
     2   7 N        2.825     0.072    19.986     6.640
     3   6 C        3.050     0.052    26.778     8.487
     4   7 N        2.780    -0.055    22.308     7.015
     5   6 C        3.046     0.101    25.728     8.319
     6   6 C        3.108     0.029    27.221     8.548
     7   6 C        1.951    -0.093    33.637     9.366
     8   8 O        0.806    -0.523    24.326     6.611
     9   7 N        2.749     0.070    20.032     6.647
    10   6 C        2.828    -0.029    28.705     8.779
    11   6 C        2.735     0.303    21.850     7.653
    12   8 O        0.858    -0.335    20.422     6.059
    13   7 N        2.736    -0.035    21.928     6.955
    14   6 C        3.698    -0.073    22.068     6.719
    15   1 H        0.924     0.112     1.680     2.027
    16   1 H        0.925     0.104     1.749     2.068
    17   1 H        0.925     0.130     1.535     1.938
    18   1 H        0.926     0.121     1.604     1.981
    19   1 H        0.806     0.287     0.763     1.372
    20   1 H        0.926     0.130     1.536     1.938
    21   1 H        0.922     0.204     1.081     1.626
    22   1 H        0.925     0.085     1.926     2.170
    23   1 H        0.924     0.087     1.913     2.163
    24   1 H        0.925     0.125     1.575     1.963
    25   1 H        0.860     0.226     0.984     1.554

Wiberg/Mayer (AO) data.
largest (>0.10) Wiberg bond orders for each atom

     #   Z sym  total        # sym  WBO       # sym  WBO       # sym  WBO
 ---------------------------------------------------------------------------
     1   6 C    3.918 --     2 N    0.989    16 H    0.968    17 H    0.964
                            15 H    0.952
     2   7 N    3.649 --     3 C    1.387     6 C    1.125     1 C    0.989
     3   6 C    3.814 --     2 N    1.387     4 N    1.268    18 H    0.953
     4   7 N    3.592 --     3 C    1.268     5 C    1.205    25 H    0.919
     5   6 C    3.818 --     6 C    1.239     4 N    1.205    13 N    1.195
     6   6 C    3.911 --     7 C    1.324     5 C    1.239     2 N    1.125
     7   6 C    2.695 --     6 C    1.324     9 N    1.202
     8   8 O    1.022 --    19 H    0.914
     9   7 N    3.710 --    10 C    1.407     7 C    1.202    11 C    0.944
    10   6 C    3.348 --     9 N    1.407    20 H    0.955    21 H    0.847
    11   6 C    3.897 --    12 O    1.738    13 N    1.113     9 N    0.944
    12   8 O    2.046 --    11 C    1.738    13 N    0.142
    13   7 N    3.567 --     5 C    1.195    11 C    1.113    14 C    0.968
                            12 O    0.142
    14   6 C    3.920 --    22 H    0.971    23 H    0.970    13 N    0.968
                            24 H    0.966
    15   1 H    0.981 --     1 C    0.952
    16   1 H    0.986 --     1 C    0.968
    17   1 H    0.982 --     1 C    0.964
    18   1 H    0.984 --     3 C    0.953
    19   1 H    0.917 --     8 O    0.914
    20   1 H    0.977 --    10 C    0.955
    21   1 H    0.954 --    10 C    0.847
    22   1 H    0.990 --    14 C    0.971
    23   1 H    0.990 --    14 C    0.970
    24   1 H    0.984 --    14 C    0.966
    25   1 H    0.947 --     4 N    0.919
 ---------------------------------------------------------------------------

molecular dipole:
                 x           y           z       tot (Debye)
 q only:        2.350      -2.524      -0.115
   full:        2.417      -3.028      -0.182       9.857

           -------------------------------------------------
          | TOTAL ENERGY              -42.034550291426 Eh   |
          | GRADIENT NORM               0.002841600772 Eh/α |
          | HOMO-LUMO GAP               0.487650274653 eV   |
           -------------------------------------------------

 * finished run on 2024/06/05 at 19:57:56.034
