   * xtb version 6.6.1 (8d0f1dd) compiled by 'conda@1efc2f54142f' on 2023-08-01
          program call               : xtb struc.xyz --opt loose --input .xc1 --gfn2

   ID    Z sym.   atoms
    1    7 N      1, 17
    2    6 C      2-6, 8, 9, 11-16, 18-23, 25, 26, 28-33
    3    8 O      7, 10, 24, 27
    4    1 H      34-72
constraining bond 19 49 to    4.1400000 Å, actual value:    2.1649203 Å

          :  Hamiltonian                  GFN2-xTB          :
 * total energy  :   -98.7076056 Eh     change       -0.4035485E-08 Eh
 * total energy  :   -98.9518269 Eh     change       -0.2442213E+00 Eh
 * total energy  :   -99.0962988 Eh     change       -0.1444719E+00 Eh
 * total energy  :   -99.1734607 Eh     change       -0.7716187E-01 Eh
 * total energy  :   -99.2101319 Eh     change       -0.3667115E-01 Eh
 * total energy  :   -99.2189744 Eh     change       -0.8842538E-02 Eh
 * total energy  :   -99.2214858 Eh     change       -0.2511360E-02 Eh
 * total energy  :   -99.2255647 Eh     change       -0.4078953E-02 Eh
 * total energy  :   -99.2320958 Eh     change       -0.6531060E-02 Eh
 * total energy  :   -99.2457025 Eh     change       -0.1360675E-01 Eh
 * total energy  :   -99.3272619 Eh     change       -0.7018205E-04 Eh
 * total energy  :   -99.3273382 Eh     change       -0.7631914E-04 Eh
 * total energy  :   -99.3274136 Eh     change       -0.7535894E-04 Eh
 * total energy  :   -99.3274902 Eh     change       -0.7663484E-04 Eh
 * total energy  :   -99.3275633 Eh     change       -0.7306618E-04 Eh
 * total energy  :   -99.3276258 Eh     change       -0.6250527E-04 Eh
 * total energy  :   -99.3276834 Eh     change       -0.5761275E-04 Eh
 * total energy  :   -99.3277454 Eh     change       -0.6202013E-04 Eh
 * total energy  :   -99.3277719 Eh     change       -0.2647576E-04 Eh
   *** GEOMETRY OPTIMIZATION CONVERGED AFTER 44 ITERATIONS ***

 final structure:
================
72
 xtb: 6.6.1 (8d0f1dd)
N           -2.15676543565984        2.93054455684313        2.43923688931829
C           -1.97385493534225        2.14892751853306        1.48214646354411
C           -2.96767128365110        1.91645640073015        0.37559889035939
C           -3.49330271001096        0.49333532611353        0.45756163228460
C           -4.27104432679181       -0.01929258267686       -0.58242223829038
C           -4.77822449912700       -1.30775565298243       -0.54142463695094
O           -5.53908781177919       -1.87516380127373       -1.49932555360991
C           -5.96870706091729       -1.09523545695609       -2.59124936704970
C           -4.49355640241836       -2.13630243945036        0.57861938654987
O           -5.00502546272286       -3.38180195216032        0.52616782388131
C           -4.80291408847568       -4.25148359840869        1.61602133740567
C           -3.73444337570273       -1.61543583385548        1.61513406726788
C           -3.24466478456024       -0.31676867094758        1.55567987953620
C           -2.19123682577414        2.13138140803555       -0.95223488173115
C           -1.27882617880671        0.96742280338544       -1.38600431830601
C           -0.05910609386645        0.81845523950864       -0.55150867967847
N            0.39391232254446       -0.31517914736370       -0.02578527483989
C            1.52852317584584       -0.39633510064920        0.65727108949582
C            3.43400951581588       -0.20985098386969       -2.53772837935915
C            4.56711490136425       -0.01792014776180       -1.78511657109070
C            5.28463626155211        1.21070319570714       -1.83358869641502
C            6.42230268891271        1.40225994088119       -1.09364776294007
C            6.91446018814465        0.39357072543920       -0.25899162340157
O            8.00751481799365        0.47784771669926        0.50614825907492
C            8.77692594724946        1.66004455566953        0.50271252713050
C            6.21575250207370       -0.85595107092456       -0.19020697601856
O            6.77920404731139       -1.76210889534382        0.63575493534965
C            6.20786458854101       -3.04475073915417        0.73821383063403
C            5.07643957516277       -1.04093215950438       -0.93080021269038
C           -0.38423976930466       -1.53256191965818       -0.18183247791133
C           -4.18859028482906        2.88341461679173        0.43560421880052
C           -5.03441844036757        2.64207980494503        1.68377188334102
C           -3.79527355093170        4.35544493446554        0.35637040549271
H           -4.49085839213933        0.60457739524000       -1.43281186456295
H           -6.54591446383651       -0.22691148357901       -2.25976598541891
H           -6.60756128147736       -1.74833559974792       -3.18226080601447
H           -5.12602411932694       -0.76307897069045       -3.20630222712223
H           -5.23444162949702       -3.84793239295466        2.53667938740716
H           -5.31488480187810       -5.17457629726762        1.35201083615065
H           -3.73912071952745       -4.45868914352494        1.77105949703132
H           -3.52394102904404       -2.21114211269012        2.48836864032198
H           -2.68006301882489        0.06153091734102        2.39352908809211
H           -2.91324902646704        2.30106735091432       -1.75104883526654
H           -1.58833665494955        3.03562855298336       -0.85876981317942
H           -1.86130031007489        0.04930831153477       -1.41744710006724
H           -0.96178540946144        1.19406937500248       -2.41235793682499
H           -1.04367471856008        1.57549017649958        1.32871617589297
H            0.58195216361851        1.68066768399930       -0.44746744551344
H            1.82146413976408       -1.32273876434493        1.10482467966188
H            2.14394139330562        0.47389632394258        0.77277430531720
H            3.06192130182796        0.56018771626343       -3.18805201481992
H            2.90259988278368       -1.14415725787162       -2.51736516977665
H            4.92146889898820        1.99627191600084       -2.47752307525318
H            6.94559063058189        2.34252821501309       -1.16314387072515
H            8.18498909405098        2.52418654080229        0.81709893748196
H            9.20856007329341        1.85076780731903       -0.48388671688281
H            9.57689187782018        1.48949757545528        1.22042332092424
H            6.86242383956163       -3.60328145490562        1.40459304453024
H            5.20278076577680       -3.00072857286092        1.17031103500500
H            6.16682020785903       -3.54460519531258       -0.23394217848352
H            4.54275069075579       -1.97695659104356       -0.89413799004122
H           -0.47931766378194       -1.78392991481522       -1.23786637890385
H           -1.37961349567159       -1.40571838615563        0.24701153724835
H            0.11403832945926       -2.35318956645128        0.32750570063513
H           -4.80851444303002        2.65246625009169       -0.43856681268311
H           -4.45815521549532        2.87327889339235        2.57403319968325
H           -5.37066389967921        1.60938569851618        1.73870515788866
H           -5.90974535996965        3.28601229961772        1.66120354653100
H           -3.16576084642060        4.62297284232547        1.19944154857228
H           -3.27351268699597        4.58707203171637       -0.56829406070177
H           -4.69321324981421        4.96685100478310        0.39532958735826
H           -1.40973246791397        3.03533775726779        3.11851002999106

          :  Hamiltonian                  GFN2-xTB          :
         :: total energy             -99.327771897478 Eh    ::
         :: gradient norm              0.001235860431 Eh/a0 ::
         :: HOMO-LUMO gap              0.733068723591 eV    ::
         :: SCC energy              -100.730712481262 Eh    ::
         :: -> dispersion             -0.073446331282 Eh    ::
         :: repulsion energy           1.401114547311 Eh    ::

    * Orbital Energies and Occupations

         #    Occupation            Energy/Eh            Energy/eV
      -------------------------------------------------------------
         1        2.0000           -0.8164855             -22.2177
       ...           ...                  ...                  ...
        78        1.9977           -0.5281282             -14.3711
        79        1.9976           -0.5271032             -14.3432
        80        1.9967           -0.5225275             -14.2187
        81        1.9963           -0.5204195             -14.1613
        82        1.9944           -0.5139961             -13.9865
        83        1.9936           -0.5117321             -13.9249
        84        1.9921           -0.5083834             -13.8338
        85        1.9884           -0.5023014             -13.6683
        86        1.9770           -0.4913993             -13.3717
        87        1.9290           -0.4731856             -12.8760
        88        1.9181           -0.4708218             -12.8117
        89        1.8507           -0.4607465             -12.5376
        90        1.5614           -0.4409960             -12.0001 (HOMO)
        91        0.7875           -0.4140562             -11.2670 (LUMO)
        92        0.0136           -0.3419949              -9.3062
        93        0.0091           -0.3356413              -9.1333
        94        0.0030           -0.3177935              -8.6476
        95        0.0024           -0.3147220              -8.5640
        96        0.0020           -0.3111835              -8.4677
        97        0.0004           -0.2872662              -7.8169
        98        0.0000           -0.1922660              -5.2318
        99        0.0000           -0.1800918              -4.9005
       100                         -0.1029212              -2.8006
       101                         -0.0670960              -1.8258
       ...                                ...                  ...
       171                          0.5889362              16.0258
      -------------------------------------------------------------
                  HL-Gap            0.0269398 Eh            0.7331 eV

     #   Z          covCN         q      C6AA      α(0)
     1   7 N        1.774    -0.265    27.696     7.793
     2   6 C        2.827     0.102    25.742     8.314
     3   6 C        3.907     0.007    20.405     6.421
     4   6 C        2.974     0.005    27.897     8.664
     5   6 C        2.920    -0.079    29.972     8.978
     6   6 C        2.862     0.129    25.161     8.222
     7   8 O        1.706    -0.229    17.791     5.695
     8   6 C        3.644     0.027    20.460     6.502
     9   6 C        2.864     0.128    25.183     8.226
    10   8 O        1.706    -0.227    17.760     5.690
    11   6 C        3.645     0.026    20.470     6.502
    12   6 C        2.913    -0.074    29.856     8.960
    13   6 C        2.921    -0.052    29.292     8.875
    14   6 C        3.810    -0.064    21.728     6.635
    15   6 C        3.801    -0.067    21.781     6.645
    16   6 C        2.869    -0.041    29.007     8.829
    17   7 N        2.729     0.101    19.505     6.559
    18   6 C        2.822    -0.106    30.667     9.074
    19   6 C        2.852    -0.094    30.365     9.032
    20   6 C        2.959     0.023    27.495     8.601
    21   6 C        2.921    -0.037    28.930     8.820
    22   6 C        2.906    -0.062    29.554     8.914
    23   6 C        2.864     0.141    24.927     8.184
    24   8 O        1.706    -0.203    17.384     5.629
    25   6 C        3.645     0.021    20.551     6.515
    26   6 C        2.856     0.135    25.047     8.203
    27   8 O        1.706    -0.231    17.824     5.700
    28   6 C        3.645     0.027    20.452     6.500
    29   6 C        2.917    -0.079    29.970     8.977
    30   6 C        3.719    -0.078    22.111     6.716
    31   6 C        3.853    -0.007    20.670     6.466
    32   6 C        3.756    -0.118    22.819     6.811
    33   6 C        3.755    -0.119    22.829     6.813
    34   1 H        0.926     0.054     2.267     2.355
    35   1 H        0.924     0.055     2.257     2.349
    36   1 H        0.925     0.082     1.960     2.189
    37   1 H        0.924     0.049     2.338     2.391
    38   1 H        0.924     0.057     2.239     2.340
    39   1 H        0.925     0.082     1.959     2.189
    40   1 H        0.924     0.049     2.333     2.389
    41   1 H        0.926     0.054     2.272     2.357
    42   1 H        0.926     0.042     2.421     2.433
    43   1 H        0.925     0.056     2.242     2.341
    44   1 H        0.924     0.052     2.295     2.369
    45   1 H        0.925     0.057     2.237     2.339
    46   1 H        0.924     0.066     2.134     2.285
    47   1 H        0.923     0.015     2.814     2.624
    48   1 H        0.926     0.056     2.245     2.343
    49   1 H        0.927     0.061     2.193     2.316
    50   1 H        0.926     0.058     2.224     2.332
    51   1 H        0.926     0.052     2.296     2.369
    52   1 H        0.926     0.046     2.376     2.411
    53   1 H        0.926     0.058     2.218     2.329
    54   1 H        0.926     0.060     2.193     2.316
    55   1 H        0.924     0.059     2.206     2.322
    56   1 H        0.924     0.063     2.165     2.301
    57   1 H        0.925     0.086     1.914     2.164
    58   1 H        0.925     0.082     1.962     2.190
    59   1 H        0.924     0.047     2.359     2.402
    60   1 H        0.924     0.054     2.270     2.356
    61   1 H        0.926     0.053     2.283     2.363
    62   1 H        0.925     0.081     1.964     2.191
    63   1 H        0.924     0.084     1.940     2.178
    64   1 H        0.925     0.084     1.942     2.180
    65   1 H        0.924     0.038     2.479     2.462
    66   1 H        0.925     0.069     2.093     2.262
    67   1 H        0.925     0.035     2.515     2.480
    68   1 H        0.925     0.052     2.299     2.371
    69   1 H        0.925     0.063     2.164     2.301
    70   1 H        0.925     0.036     2.498     2.471
    71   1 H        0.925     0.054     2.268     2.355
    72   1 H        0.860     0.159     1.341     1.814

Wiberg/Mayer (AO) data.
largest (>0.10) Wiberg bond orders for each atom

     #   Z sym  total        # sym  WBO       # sym  WBO       # sym  WBO
 ---------------------------------------------------------------------------
     1   7 N    3.021 --     2 C    1.957    72 H    0.940
     2   6 C    3.933 --     1 N    1.957     3 C    0.992    47 H    0.911
     3   6 C    3.970 --     2 C    0.992     4 C    0.972    14 C    0.955
                            31 C    0.942
     4   6 C    3.944 --    13 C    1.408     5 C    1.369     3 C    0.972
     5   6 C    3.960 --     6 C    1.399     4 C    1.369    34 H    0.958
     6   6 C    3.901 --     5 C    1.399     9 C    1.219     7 O    1.101
     7   8 O    2.252 --     6 C    1.101     8 C    0.977
     8   6 C    3.931 --     7 O    0.977    36 H    0.977    35 H    0.973
                            37 H    0.973
     9   6 C    3.896 --    12 C    1.389     6 C    1.219    10 O    1.104
    10   8 O    2.251 --     9 C    1.104    11 C    0.977
    11   6 C    3.930 --    10 O    0.977    39 H    0.977    40 H    0.973
                            38 H    0.973
    12   6 C    3.960 --    13 C    1.404     9 C    1.389    41 H    0.963
    13   6 C    3.949 --     4 C    1.408    12 C    1.404    42 H    0.962
    14   6 C    3.973 --    15 C    0.982    44 H    0.973    43 H    0.969
                             3 C    0.955
    15   6 C    3.986 --    16 C    1.051    14 C    0.982    45 H    0.963
                            46 H    0.940
    16   6 C    3.670 --    17 N    1.349    15 C    1.051    48 H    0.960
                            18 C    0.215
    17   7 N    3.745 --    18 C    1.366    16 C    1.349    30 C    0.984
    18   6 C    3.596 --    17 N    1.366    49 H    0.975    50 H    0.974
                            16 C    0.215
    19   6 C    3.541 --    20 C    1.499    52 H    0.979    51 H    0.979
    20   6 C    3.979 --    19 C    1.499    21 C    1.207    29 C    1.199
    21   6 C    3.807 --    22 C    1.522    20 C    1.207    53 H    0.967
    22   6 C    3.969 --    21 C    1.522    23 C    1.316    54 H    0.961
    23   6 C    3.768 --    22 C    1.316    26 C    1.172    24 O    1.143
    24   8 O    2.258 --    23 C    1.143    25 C    0.971
    25   6 C    3.923 --    57 H    0.976    55 H    0.972    24 O    0.971
                            56 H    0.971
    26   6 C    3.914 --    29 C    1.483    23 C    1.172    27 O    1.097
    27   8 O    2.254 --    26 C    1.097    28 C    0.978
    28   6 C    3.932 --    27 O    0.978    58 H    0.977    59 H    0.974
                            60 H    0.973
    29   6 C    3.854 --    26 C    1.483    20 C    1.199    61 H    0.962
    30   6 C    3.954 --    17 N    0.984    64 H    0.977    62 H    0.970
                            63 H    0.960
    31   6 C    3.969 --    33 C    1.009    32 C    1.008    65 H    0.958
                             3 C    0.942
    32   6 C    3.975 --    31 C    1.008    67 H    0.981    68 H    0.981
                            66 H    0.972
    33   6 C    3.979 --    31 C    1.009    70 H    0.982    71 H    0.979
                            69 H    0.974
    34   1 H    0.996 --     5 C    0.958
    35   1 H    0.993 --     8 C    0.973
    36   1 H    0.993 --     8 C    0.977
    37   1 H    0.993 --     8 C    0.973
    38   1 H    0.992 --    11 C    0.973
    39   1 H    0.993 --    11 C    0.977
    40   1 H    0.993 --    11 C    0.973
    41   1 H    0.995 --    12 C    0.963
    42   1 H    0.997 --    13 C    0.962
    43   1 H    0.995 --    14 C    0.969
    44   1 H    0.996 --    14 C    0.973
    45   1 H    0.996 --    15 C    0.963
    46   1 H    0.976 --    15 C    0.940
    47   1 H    0.978 --     2 C    0.911
    48   1 H    0.997 --    16 C    0.960
    49   1 H    0.996 --    18 C    0.975
    50   1 H    0.997 --    18 C    0.974
    51   1 H    0.996 --    19 C    0.979
    52   1 H    0.997 --    19 C    0.979
    53   1 H    0.996 --    21 C    0.967
    54   1 H    0.994 --    22 C    0.961
    55   1 H    0.990 --    25 C    0.972
    56   1 H    0.989 --    25 C    0.971
    57   1 H    0.992 --    25 C    0.976
    58   1 H    0.993 --    28 C    0.977
    59   1 H    0.994 --    28 C    0.974
    60   1 H    0.993 --    28 C    0.973
    61   1 H    0.996 --    29 C    0.962
    62   1 H    0.993 --    30 C    0.970
    63   1 H    0.993 --    30 C    0.960
    64   1 H    0.993 --    30 C    0.977
    65   1 H    0.990 --    31 C    0.958
    66   1 H    0.989 --    32 C    0.972
    67   1 H    0.996 --    32 C    0.981
    68   1 H    0.993 --    32 C    0.981
    69   1 H    0.991 --    33 C    0.974
    70   1 H    0.996 --    33 C    0.982
    71   1 H    0.993 --    33 C    0.979
    72   1 H    0.967 --     1 N    0.940
 ---------------------------------------------------------------------------

molecular dipole:
                 x           y           z       tot (Debye)
 q only:        1.085      -0.198      -0.369
   full:        1.468      -0.291      -0.476       3.990

           -------------------------------------------------
          | TOTAL ENERGY              -99.327771897478 Eh   |
          | GRADIENT NORM               0.001235860431 Eh/α |
          | HOMO-LUMO GAP               0.733068723591 eV   |
           -------------------------------------------------

 * finished run on 2024/04/06 at 11:13:49.815
