   * xtb version 6.6.1 (8d0f1dd) compiled by 'conda@1efc2f54142f' on 2023-08-01
          program call               : xtb struc.xyz --opt loose --input .xc1 --gfn2

   ID    Z sym.   atoms
    1    6 C      1, 3, 5-7, 10, 11, 14
    2    7 N      2, 4, 9, 13
    3    8 O      8, 12
    4    1 H      15-25
constraining bond 4 6 to    4.9200000 Å, actual value:    2.2058558 Å

          :  Hamiltonian                  GFN2-xTB          :
 * total energy  :   -29.0920209 Eh     change       -0.6633627E-10 Eh
 * total energy  :   -33.5607435 Eh     change       -0.4468723E+01 Eh
 * total energy  :   -36.6630344 Eh     change       -0.3102291E+01 Eh
 * total energy  :   -38.9647743 Eh     change       -0.2301740E+01 Eh
 * total energy  :   -40.7000964 Eh     change       -0.1735322E+01 Eh
 * total energy  :   -41.3398746 Eh     change       -0.6397781E+00 Eh
 * total energy  :   -41.4544895 Eh     change       -0.1146150E+00 Eh
 * total energy  :   -41.5047150 Eh     change       -0.5022544E-01 Eh
 * total energy  :   -41.5242344 Eh     change       -0.1951939E-01 Eh
 * total energy  :   -41.5294062 Eh     change       -0.5171862E-02 Eh
 * total energy  :   -42.0476920 Eh     change       -0.1611628E-03 Eh
 * total energy  :   -42.0477817 Eh     change       -0.8969311E-04 Eh
 * total energy  :   -42.0478738 Eh     change       -0.9210064E-04 Eh
 * total energy  :   -42.0479713 Eh     change       -0.9751765E-04 Eh
 * total energy  :   -42.0480825 Eh     change       -0.1111968E-03 Eh
 * total energy  :   -42.0481985 Eh     change       -0.1160177E-03 Eh
 * total energy  :   -42.0482678 Eh     change       -0.6926316E-04 Eh
 * total energy  :   -42.0483327 Eh     change       -0.6490120E-04 Eh
 * total energy  :   -42.0483579 Eh     change       -0.2522623E-04 Eh
   *** GEOMETRY OPTIMIZATION CONVERGED AFTER 76 ITERATIONS ***

 final structure:
================
25
 xtb: 6.6.1 (8d0f1dd)
C            2.70419126330361        0.56185752370280       -0.16117697019912
N            1.70431835714623       -0.49679980706758       -0.13106449594507
C            2.16408497341223       -1.78402469283784        0.17866986326316
N            1.45039467879633       -2.54873093684281        0.86602796369991
C            0.41333941435785       -0.15497874672534       -0.13930920889800
C            0.77737886651966        2.32262669275449        0.68762403387209
C           -0.05633565591245        1.22917823405202        0.11736980394459
O            0.49902891343040        2.36159762694949       -0.55596870181432
N           -1.46163406528726        1.14133752393178        0.18603470360136
C           -2.34513736882261        2.25785702437331        0.44844050039792
C           -1.87487585854306       -0.11586462095649       -0.08327824841966
O           -2.96699135766445       -0.57498752653894       -0.14776184870038
N           -0.66168453941934       -0.90472243711737       -0.29294597566755
C           -0.81061569235182       -2.28016181492302       -0.66274444918533
H            2.49828066198097        1.29551815349180        0.63442099882228
H            3.69034755633087        0.13925215072618        0.01804094898296
H            2.70578420673919        1.07403159382320       -1.12589177684969
H            3.17873823939782       -1.96271910938747       -0.18501400926089
H           -2.15557985508924        3.06760805640515       -0.25878777769876
H           -3.36665604522149        1.90017984312169        0.32846843647282
H           -2.20018354320734        2.62005475919415        1.46839584677971
H           -0.40453964067048       -2.92590050137430        0.12292045438026
H           -0.28587708600485       -2.48733068278590       -1.59434984811280
H           -1.87995272081013       -2.46158056313195       -0.78090168256860
H            1.84460781168931       -3.45505920123616        1.09395305700294

          :  Hamiltonian                  GFN2-xTB          :
         :: total energy             -42.048357924271 Eh    ::
         :: gradient norm              0.003022271974 Eh/a0 ::
         :: HOMO-LUMO gap              2.012188847195 eV    ::
         :: SCC energy               -42.545414327041 Eh    ::
         :: -> dispersion             -0.022902281137 Eh    ::
         :: repulsion energy           0.496863425162 Eh    ::

    * Orbital Energies and Occupations

         #    Occupation            Energy/Eh            Energy/eV
      -------------------------------------------------------------
         1        2.0000           -0.9582651             -26.0757
       ...           ...                  ...                  ...
        25        2.0000           -0.6827903             -18.5797
        26        2.0000           -0.6778022             -18.4439
        27        2.0000           -0.6662698             -18.1301
        28        2.0000           -0.6559427             -17.8491
        29        2.0000           -0.6485419             -17.6477
        30        2.0000           -0.6424685             -17.4825
        31        2.0000           -0.6291469             -17.1200
        32        2.0000           -0.6238507             -16.9758
        33        2.0000           -0.6106763             -16.6173
        34        1.9999           -0.5974337             -16.2570
        35        1.9998           -0.5955274             -16.2051
        36        1.9908           -0.5642285             -15.3534
        37        1.9846           -0.5601306             -15.2419 (HOMO)
        38        0.0224           -0.4861840             -13.2297 (LUMO)
        39        0.0026           -0.4689118             -12.7597
        40        0.0000           -0.4015680             -10.9272
        41                         -0.3601813              -9.8010
        42                         -0.2463641              -6.7039
        43                         -0.2215728              -6.0293
        44                         -0.2040084              -5.5514
        45                         -0.1728573              -4.7037
        46                         -0.1202748              -3.2728
        47                         -0.0996602              -2.7119
        48                         -0.0884345              -2.4064
       ...                                ...                  ...
        67                          0.5797585              15.7760
      -------------------------------------------------------------
                  HL-Gap            0.0739466 Eh            2.0122 eV

     #   Z          covCN         q      C6AA      α(0)
     1   6 C        3.707    -0.071    22.010     6.706
     2   7 N        2.742     0.002    21.229     6.843
     3   6 C        2.769     0.133    25.069     8.200
     4   7 N        1.782    -0.284    28.174     7.861
     5   6 C        2.918     0.129    25.175     8.228
     6   6 C        1.833    -0.002    31.216     9.026
     7   6 C        3.832     0.189    17.581     5.966
     8   8 O        1.703    -0.092    15.725     5.354
     9   7 N        2.774    -0.096    23.112     7.140
    10   6 C        3.689    -0.057    21.799     6.682
    11   6 C        2.818     0.319    21.586     7.613
    12   8 O        0.857    -0.325    20.247     6.033
    13   7 N        2.793    -0.017    21.582     6.900
    14   6 C        3.690    -0.084    22.306     6.759
    15   1 H        0.923     0.110     1.701     2.039
    16   1 H        0.925     0.114     1.661     2.015
    17   1 H        0.924     0.100     1.784     2.089
    18   1 H        0.924     0.067     2.124     2.279
    19   1 H        0.924     0.089     1.888     2.149
    20   1 H        0.925     0.115     1.655     2.012
    21   1 H        0.924     0.092     1.857     2.131
    22   1 H        0.924     0.135     1.500     1.916
    23   1 H        0.925     0.096     1.818     2.109
    24   1 H        0.924     0.135     1.500     1.915
    25   1 H        0.860     0.203     1.089     1.635

Wiberg/Mayer (AO) data.
largest (>0.10) Wiberg bond orders for each atom

     #   Z sym  total        # sym  WBO       # sym  WBO       # sym  WBO
 ---------------------------------------------------------------------------
     1   6 C    3.932 --     2 N    0.974    17 H    0.968    16 H    0.967
                            15 H    0.911
     2   7 N    3.618 --     5 C    1.309     3 C    1.055     1 C    0.974
                            13 N    0.106
     3   6 C    3.944 --     4 N    1.891     2 N    1.055    18 H    0.931
     4   7 N    3.052 --     3 C    1.891    25 H    0.927
     5   6 C    3.969 --    13 N    1.398     2 N    1.309     7 C    1.019
     6   6 C    2.595 --     8 O    1.491     7 C    0.864
     7   6 C    3.848 --     9 N    1.024     5 C    1.019     6 C    0.864
                             8 O    0.840
     8   8 O    2.481 --     6 C    1.491     7 C    0.840
     9   7 N    3.500 --    11 C    1.196     7 C    1.024    10 C    0.969
                            12 O    0.190
    10   6 C    3.920 --    19 H    0.971    20 H    0.970    21 H    0.969
                             9 N    0.969
    11   6 C    3.959 --    12 O    1.750     9 N    1.196    13 N    0.916
    12   8 O    2.139 --    11 C    1.750     9 N    0.190
    13   7 N    3.654 --     5 C    1.398    14 C    0.995    11 C    0.916
                             2 N    0.106
    14   6 C    3.913 --    13 N    0.995    23 H    0.960    24 H    0.958
                            22 H    0.913
    15   1 H    0.988 --     1 C    0.911
    16   1 H    0.986 --     1 C    0.967
    17   1 H    0.989 --     1 C    0.968
    18   1 H    0.992 --     3 C    0.931
    19   1 H    0.991 --    10 C    0.971
    20   1 H    0.986 --    10 C    0.970
    21   1 H    0.990 --    10 C    0.969
    22   1 H    0.978 --    14 C    0.913
    23   1 H    0.989 --    14 C    0.960
    24   1 H    0.981 --    14 C    0.958
    25   1 H    0.958 --     4 N    0.927
 ---------------------------------------------------------------------------

molecular dipole:
                 x           y           z       tot (Debye)
 q only:        1.588      -0.464      -0.077
   full:        2.048      -0.534      -0.640       5.621

           -------------------------------------------------
          | TOTAL ENERGY              -42.048357924271 Eh   |
          | GRADIENT NORM               0.003022271974 Eh/α |
          | HOMO-LUMO GAP               2.012188847195 eV   |
           -------------------------------------------------

 * finished run on 2024/06/05 at 19:57:57.442
