   * xtb version 6.6.1 (8d0f1dd) compiled by 'conda@1efc2f54142f' on 2023-08-01
          program call               : xtb struc.xyz --opt loose --input .xc1 --gfn2

   ID    Z sym.   atoms
    1    6 C      1, 3, 5-7, 10, 11, 14
    2    7 N      2, 4, 9, 13
    3    8 O      8, 12
    4    1 H      15-25
constraining bond 5 12 to    5.7600000 Å, actual value:    3.4583605 Å

          :  Hamiltonian                  GFN2-xTB          :
 * total energy  :   -32.7889229 Eh     change       -0.6650680E-10 Eh
 * total energy  :   -36.5313016 Eh     change       -0.3742379E+01 Eh
 * total energy  :   -39.1565178 Eh     change       -0.2625216E+01 Eh
 * total energy  :   -40.7160839 Eh     change       -0.1559566E+01 Eh
 * total energy  :   -41.3917312 Eh     change       -0.6756473E+00 Eh
 * total energy  :   -41.5562320 Eh     change       -0.1645008E+00 Eh
 * total energy  :   -41.6025933 Eh     change       -0.4636126E-01 Eh
 * total energy  :   -41.6522700 Eh     change       -0.4967672E-01 Eh
 * total energy  :   -41.6888881 Eh     change       -0.3661809E-01 Eh
 * total energy  :   -41.7453967 Eh     change       -0.5650866E-01 Eh
 * total energy  :   -42.1148447 Eh     change       -0.9981974E-03 Eh
 * total energy  :   -42.1156627 Eh     change       -0.8180494E-03 Eh
 * total energy  :   -42.1163458 Eh     change       -0.6830493E-03 Eh
 * total energy  :   -42.1172244 Eh     change       -0.8786179E-03 Eh
 * total energy  :   -42.1176516 Eh     change       -0.4271896E-03 Eh
 * total energy  :   -42.1177646 Eh     change       -0.1130826E-03 Eh
 * total energy  :   -42.1180189 Eh     change       -0.2543014E-03 Eh
 * total energy  :   -42.1180778 Eh     change       -0.5885309E-04 Eh
 * total energy  :   -42.1181092 Eh     change       -0.3140566E-04 Eh
   *** GEOMETRY OPTIMIZATION CONVERGED AFTER 67 ITERATIONS ***

 final structure:
================
25
 xtb: 6.6.1 (8d0f1dd)
C            3.15109074648256        1.22868638020119       -0.09185799279508
N            2.31651768733799        0.05644714212977       -0.04710315435935
C            2.75704543111097       -1.19779128847890        0.06129564035455
N            1.71232803735220       -2.06496869071526        0.09841692933903
C            0.58585245781339       -1.33009737531693        0.01060432028884
C            0.94061415773109        0.02553038332236       -0.08548585679023
C            0.00290835143463        1.17634910744575       -0.17445676828346
O            0.36949526924436        2.32671304032748       -0.22249934173725
N           -1.37126074321162        0.80512365325986       -0.15895348015378
C           -2.45409714094000        2.00552956851519        0.21482668681000
C           -1.70350812649120       -0.49127125787195       -0.07054733068419
O           -3.39470919730139        2.75087339605996       -0.55715144871169
N           -0.79590327476856       -1.51145162084433       -0.00724705426545
C           -1.32753507027656       -2.86263596983287        0.05876809578931
H            3.62390325610469        1.39085042383542        0.87804586356580
H            3.92802112621508        1.10890481500941       -0.84608463864242
H            2.53262512106361        2.09308576071692       -0.33089276483651
H            3.78650122261257       -1.49008523807390        0.11061648834112
H           -1.74748111572386        2.76080087096998        0.56220194754207
H           -4.15488713898742        2.20767000014633       -0.80074743159048
H           -2.96982156551180        1.50666967134953        1.03693485723941
H           -0.98678816125742       -3.36158970631704        0.96729625005616
H           -1.01279611513652       -3.43881586712792       -0.81274567440044
H           -2.41290337604632       -2.80612780902564        0.07075760647498
H            1.78521967524763       -3.07016084808773        0.16717986935017

          :  Hamiltonian                  GFN2-xTB          :
         :: total energy             -42.118109204939 Eh    ::
         :: gradient norm              0.001979446125 Eh/a0 ::
         :: HOMO-LUMO gap              2.062393246329 eV    ::
         :: SCC energy               -42.596050293682 Eh    ::
         :: -> dispersion             -0.021661080484 Eh    ::
         :: repulsion energy           0.476159477204 Eh    ::

    * Orbital Energies and Occupations

         #    Occupation            Energy/Eh            Energy/eV
      -------------------------------------------------------------
         1        2.0000           -0.9041427             -24.6030
       ...           ...                  ...                  ...
        25        2.0000           -0.6661441             -18.1267
        26        2.0000           -0.6511915             -17.7198
        27        2.0000           -0.6464956             -17.5920
        28        1.9999           -0.6269637             -17.0606
        29        1.9999           -0.6199619             -16.8700
        30        1.9998           -0.6175368             -16.8040
        31        1.9998           -0.6123743             -16.6636
        32        1.9995           -0.6015061             -16.3678
        33        1.9988           -0.5870051             -15.9732
        34        1.9957           -0.5661299             -15.4052
        35        1.9928           -0.5580560             -15.1855
        36        1.9880           -0.5498616             -14.9625
        37        1.8217           -0.5057482             -13.7621 (HOMO)
        38        0.1570           -0.4299567             -11.6997 (LUMO)
        39        0.0375           -0.4063047             -11.0561
        40        0.0094           -0.3841466             -10.4532
        41        0.0001           -0.3176310              -8.6432
        42        0.0000           -0.2902347              -7.8977
        43        0.0000           -0.2055747              -5.5940
        44                         -0.1768237              -4.8116
        45                         -0.1383381              -3.7644
        46                         -0.0927136              -2.5229
        47                         -0.0671671              -1.8277
        48                         -0.0586685              -1.5965
       ...                                ...                  ...
        67                          0.5088709              13.8471
      -------------------------------------------------------------
                  HL-Gap            0.0757916 Eh            2.0624 eV

     #   Z          covCN         q      C6AA      α(0)
     1   6 C        3.691    -0.092    22.455     6.781
     2   7 N        2.828     0.074    19.961     6.636
     3   6 C        3.073     0.045    26.910     8.505
     4   7 N        2.770    -0.050    22.212     7.000
     5   6 C        3.054     0.101    25.721     8.317
     6   6 C        3.094    -0.011    28.183     8.701
     7   6 C        2.763     0.268    22.481     7.765
     8   8 O        0.857    -0.367    21.030     6.148
     9   7 N        2.682    -0.070    22.595     7.060
    10   6 C        3.555     0.116    19.548     6.455
    11   6 C        1.865    -0.068    32.982     9.276
    12   8 O        1.653    -0.362    20.136     6.058
    13   7 N        2.748     0.013    21.029     6.811
    14   6 C        3.705    -0.077    22.123     6.724
    15   1 H        0.924     0.104     1.745     2.066
    16   1 H        0.925     0.102     1.771     2.081
    17   1 H        0.925     0.137     1.484     1.905
    18   1 H        0.926     0.119     1.623     1.992
    19   1 H        0.924     0.124     1.584     1.968
    20   1 H        0.805     0.319     0.667     1.283
    21   1 H        0.924     0.082     1.960     2.189
    22   1 H        0.924     0.077     2.013     2.219
    23   1 H        0.924     0.079     1.993     2.208
    24   1 H        0.925     0.113     1.672     2.022
    25   1 H        0.860     0.227     0.980     1.550

Wiberg/Mayer (AO) data.
largest (>0.10) Wiberg bond orders for each atom

     #   Z sym  total        # sym  WBO       # sym  WBO       # sym  WBO
 ---------------------------------------------------------------------------
     1   6 C    3.917 --     2 N    0.986    16 H    0.964    17 H    0.958
                            15 H    0.957
     2   7 N    3.658 --     3 C    1.373     6 C    1.172     1 C    0.986
     3   6 C    3.817 --     2 N    1.373     4 N    1.255    18 H    0.954
     4   7 N    3.581 --     3 C    1.255     5 C    1.216    25 H    0.920
     5   6 C    3.928 --     6 C    1.364     4 N    1.216    13 N    1.139
     6   6 C    3.909 --     5 C    1.364     2 N    1.172     7 C    1.055
     7   6 C    3.915 --     8 O    1.708     9 N    1.064     6 C    1.055
     8   8 O    2.032 --     7 C    1.708     9 N    0.127
     9   7 N    3.580 --    11 C    1.395     7 C    1.064    10 C    0.828
                             8 O    0.127
    10   6 C    3.903 --    12 O    1.098    21 H    0.966    19 H    0.957
                             9 N    0.828
    11   6 C    2.873 --     9 N    1.395    13 N    1.287
    12   8 O    2.081 --    10 C    1.098    20 H    0.886
    13   7 N    3.606 --    11 C    1.287     5 C    1.139    14 C    0.985
    14   6 C    3.939 --    13 N    0.985    24 H    0.973    22 H    0.972
                            23 H    0.972
    15   1 H    0.985 --     1 C    0.957
    16   1 H    0.986 --     1 C    0.964
    17   1 H    0.981 --     1 C    0.958
    18   1 H    0.985 --     3 C    0.954
    19   1 H    0.984 --    10 C    0.957
    20   1 H    0.898 --    12 O    0.886
    21   1 H    0.990 --    10 C    0.966
    22   1 H    0.991 --    14 C    0.972
    23   1 H    0.991 --    14 C    0.972
    24   1 H    0.987 --    14 C    0.973
    25   1 H    0.948 --     4 N    0.920
 ---------------------------------------------------------------------------

molecular dipole:
                 x           y           z       tot (Debye)
 q only:        1.600      -2.502       0.391
   full:        2.110      -3.125       0.369       9.629

           -------------------------------------------------
          | TOTAL ENERGY              -42.118109204939 Eh   |
          | GRADIENT NORM               0.001979446125 Eh/α |
          | HOMO-LUMO GAP               2.062393246329 eV   |
           -------------------------------------------------

 * finished run on 2024/06/05 at 19:57:56.460
