   * xtb version 6.6.1 (8d0f1dd) compiled by 'conda@1efc2f54142f' on 2023-08-01
          program call               : xtb xtbopt.xyz --opt crude --input .xc2 --gfn2

   ID    Z sym.   atoms
    1    6 C      1, 3, 5-7, 10, 11, 14
    2    7 N      2, 4, 9, 13
    3    8 O      8, 12
    4    1 H      15-25

          :  Hamiltonian                  GFN2-xTB          :
 * total energy  :   -42.0901341 Eh     change       -0.2295053E-11 Eh
   *** GEOMETRY OPTIMIZATION CONVERGED AFTER 1 ITERATIONS ***

 final structure:
================
25
 xtb: 6.6.1 (8d0f1dd)
C            3.16131408279739        1.20495696249812        0.02390732385494
N            2.21136328247505        0.12573914167669        0.00393726999639
C            2.51886611915193       -1.17559048894488       -0.00511218336229
N            1.35907752219799       -1.87124751525384       -0.00346748549518
C            0.30382648128255       -1.00605864487640        0.00589448869002
C            0.84310485178497        0.27565931722921        0.01165924105512
C            0.00296533756214        1.45169285383605        0.00160235579058
O            0.38292385958826        2.59907193909629       -0.01272004557769
N           -1.35163793667266        1.10962697020700        0.00482371455653
C           -2.31909659676181        2.19437345084002       -0.00382467911399
C           -1.90656619795864       -0.15977834915526        0.00559001950021
O           -3.09423256679437       -0.33666572102925        0.00402684775012
N           -1.01773359707693       -1.25000596462492        0.00702901301687
C           -1.55240710112700       -2.59634415103161        0.00002958721592
H            3.65079601813833        1.25434859790468        0.99815387585542
H            3.92318850304709        1.04011546036198       -0.73681598580506
H            2.64279423782521        2.14471201095478       -0.16114062670245
H            4.88053873946736       -2.90315344387530       -0.08030733140191
H           -1.77848179119912        3.13777681930726        0.00241680667008
H           -2.94781356453988        2.12402830651312       -0.89265829482022
H           -2.96567727835347        2.12129212410792        0.87171187469379
H           -1.21952249036251       -3.13959210168067        0.88483994698865
H           -1.23696258393791       -3.12402730904489       -0.90052257434570
H           -2.63890438402249       -2.52321440572814        0.01086822265700
H            1.30870856758851       -2.87947731768800       -0.00874976376713

          :  Hamiltonian                  GFN2-xTB          :
         :: total energy             -42.090134144205 Eh    ::
         :: gradient norm              0.005820128735 Eh/a0 ::
         :: HOMO-LUMO gap              0.934952800366 eV    ::
         :: SCC energy               -42.595256429839 Eh    ::
         :: -> dispersion             -0.022528850586 Eh    ::
         :: repulsion energy           0.505028574267 Eh    ::

    * Orbital Energies and Occupations

         #    Occupation            Energy/Eh            Energy/eV
      -------------------------------------------------------------
         1        2.0000           -0.8973679             -24.4186
       ...           ...                  ...                  ...
        25        1.9997           -0.6668622             -18.1462
        26        1.9997           -0.6662911             -18.1307
        27        1.9987           -0.6428693             -17.4934
        28        1.9979           -0.6347657             -17.2729
        29        1.9961           -0.6250029             -17.0072
        30        1.9938           -0.6177331             -16.8094
        31        1.9913           -0.6123975             -16.6642
        32        1.9868           -0.6057936             -16.4845
        33        1.9719           -0.5936952             -16.1553
        34        1.9281           -0.5784663             -15.7409
        35        1.9091           -0.5745982             -15.6356
        36        1.7168           -0.5549222             -15.1002
        37        1.7073           -0.5543090             -15.0835 (HOMO)
        38        0.7995           -0.5199501             -14.1486 (LUMO)
        39        0.0031           -0.4238309             -11.5330
        40        0.0005           -0.3941741             -10.7260
        41        0.0001           -0.3747505             -10.1975
        42        0.0000           -0.2957566              -8.0479
        43                         -0.2115574              -5.7568
        44                         -0.1683958              -4.5823
        45                         -0.1447346              -3.9384
        46                         -0.1333930              -3.6298
        47                         -0.0683929              -1.8611
        48                         -0.0405718              -1.1040
       ...                                ...                  ...
        67                          0.5404604              14.7067
      -------------------------------------------------------------
                  HL-Gap            0.0343589 Eh            0.9350 eV

     #   Z          covCN         q      C6AA      α(0)
     1   6 C        3.692    -0.084    22.295     6.756
     2   7 N        2.850     0.077    19.900     6.626
     3   6 C        2.067    -0.053    32.366     9.190
     4   7 N        2.810    -0.060    22.398     7.029
     5   6 C        3.021     0.116    25.416     8.270
     6   6 C        3.086    -0.011    28.193     8.704
     7   6 C        2.764     0.274    22.365     7.745
     8   8 O        0.858    -0.334    20.411     6.057
     9   7 N        2.746    -0.074    22.670     7.072
    10   6 C        3.710    -0.062    21.831     6.678
    11   6 C        2.729     0.319    21.583     7.606
    12   8 O        0.860    -0.339    20.493     6.069
    13   7 N        2.738    -0.044    22.085     6.980
    14   6 C        3.697    -0.071    22.032     6.714
    15   1 H        0.924     0.110     1.696     2.037
    16   1 H        0.925     0.110     1.694     2.035
    17   1 H        0.925     0.121     1.606     1.982
    18   1 H        0.000     0.127     3.875     3.600
    19   1 H        0.925     0.121     1.608     1.983
    20   1 H        0.924     0.111     1.691     2.034
    21   1 H        0.924     0.111     1.688     2.032
    22   1 H        0.924     0.093     1.847     2.125
    23   1 H        0.924     0.094     1.845     2.124
    24   1 H        0.925     0.129     1.545     1.944
    25   1 H        0.860     0.218     1.018     1.581

Wiberg/Mayer (AO) data.
largest (>0.10) Wiberg bond orders for each atom

     #   Z sym  total        # sym  WBO       # sym  WBO       # sym  WBO
 ---------------------------------------------------------------------------
     1   6 C    3.904 --     2 N    0.996    17 H    0.960    16 H    0.957
                            15 H    0.948
     2   7 N    3.646 --     3 C    1.364     6 C    1.169     1 C    0.996
     3   6 C    2.878 --     2 N    1.364     4 N    1.290
     4   7 N    3.583 --     3 C    1.290     5 C    1.194    25 H    0.924
     5   6 C    3.906 --     6 C    1.320    13 N    1.212     4 N    1.194
     6   6 C    3.823 --     5 C    1.320     2 N    1.169     7 C    1.072
     7   6 C    3.949 --     8 O    1.684     9 N    1.095     6 C    1.072
     8   8 O    1.987 --     7 C    1.684     9 N    0.130
     9   7 N    3.512 --    11 C    1.118     7 C    1.095    10 C    0.976
                             8 O    0.130    12 O    0.124
    10   6 C    3.878 --     9 N    0.976    19 H    0.961    21 H    0.949
                            20 H    0.948
    11   6 C    3.954 --    12 O    1.694     9 N    1.118    13 N    1.050
    12   8 O    2.004 --    11 C    1.694     9 N    0.124    13 N    0.109
    13   7 N    3.498 --     5 C    1.212    11 C    1.050    14 C    0.977
                            12 O    0.109
    14   6 C    3.909 --    13 N    0.977    24 H    0.963    22 H    0.962
                            23 H    0.961
    15   1 H    0.974 --     1 C    0.948
    16   1 H    0.977 --     1 C    0.957
    17   1 H    0.980 --     1 C    0.960
    18   1 H    0.061
    19   1 H    0.979 --    10 C    0.961
    20   1 H    0.967 --    10 C    0.948
    21   1 H    0.967 --    10 C    0.949
    22   1 H    0.979 --    14 C    0.962
    23   1 H    0.978 --    14 C    0.961
    24   1 H    0.982 --    14 C    0.963
    25   1 H    0.951 --     4 N    0.924
 ---------------------------------------------------------------------------

molecular dipole:
                 x           y           z       tot (Debye)
 q only:        1.982      -1.833      -0.002
   full:        1.776      -2.092       0.007       6.975

           -------------------------------------------------
          | TOTAL ENERGY              -42.090134144205 Eh   |
          | GRADIENT NORM               0.005820128735 Eh/α |
          | HOMO-LUMO GAP               0.934952800366 eV   |
           -------------------------------------------------

 * finished run on 2024/06/05 at 19:59:14.181
