   * xtb version 6.6.1 (8d0f1dd) compiled by 'conda@1efc2f54142f' on 2023-08-01
          program call               : xtb struc.xyz --opt loose --input .xc1 --gfn2

   ID    Z sym.   atoms
    1    6 C      1, 3, 5-7, 10, 11, 14
    2    7 N      2, 4, 9, 13
    3    8 O      8, 12
    4    1 H      15-25
constraining bond 2 15 to    4.0600000 Å, actual value:    2.0850972 Å

          :  Hamiltonian                  GFN2-xTB          :
 * total energy  :   -14.3918356 Eh     change       -0.6650680E-10 Eh
 * total energy  :   -29.8429053 Eh     change       -0.1545107E+02 Eh
 * total energy  :   -37.7843983 Eh     change       -0.7941493E+01 Eh
 * total energy  :   -41.0720829 Eh     change       -0.3287685E+01 Eh
 * total energy  :   -41.7236633 Eh     change       -0.6515803E+00 Eh
 * total energy  :   -41.7791575 Eh     change       -0.5549421E-01 Eh
 * total energy  :   -41.8140162 Eh     change       -0.3485876E-01 Eh
 * total energy  :   -41.8306520 Eh     change       -0.1663575E-01 Eh
 * total energy  :   -41.8572785 Eh     change       -0.2662652E-01 Eh
 * total energy  :   -41.8748969 Eh     change       -0.1761843E-01 Eh
 * total energy  :   -42.0935809 Eh     change       -0.1918105E-01 Eh
 * total energy  :   -42.1034581 Eh     change       -0.9877170E-02 Eh
 * total energy  :   -42.1059030 Eh     change       -0.2444892E-02 Eh
 * total energy  :   -42.1073018 Eh     change       -0.1398806E-02 Eh
 * total energy  :   -42.1075842 Eh     change       -0.2823758E-03 Eh
 * total energy  :   -42.1079633 Eh     change       -0.3790835E-03 Eh
 * total energy  :   -42.1080549 Eh     change       -0.9162694E-04 Eh
 * total energy  :   -42.1081391 Eh     change       -0.8424148E-04 Eh
 * total energy  :   -42.1081710 Eh     change       -0.3187624E-04 Eh
   *** GEOMETRY OPTIMIZATION CONVERGED AFTER 30 ITERATIONS ***

 final structure:
================
25
 xtb: 6.6.1 (8d0f1dd)
C            3.10266980966965        1.01980323725552       -0.28911107664233
N            2.23114885463394        0.02172693744832       -0.21411682076099
C            2.48289020525629       -1.30794326572177       -0.20865855384513
N            1.31360235455471       -2.00069753829767       -0.12864654026452
C            0.29167474147485       -1.10407062488916       -0.07766392843528
C            0.84716286104351        0.16313632496601       -0.12395937319607
C            0.03437012989773        1.35789593522563       -0.09748804672792
O            0.44185733082971        2.49362165440615       -0.13386832839358
N           -1.32414050516678        1.03937054670012       -0.02008133780544
C           -2.27071342631773        2.14565214401796        0.00572556997248
C           -1.90306783168711       -0.21529592111836        0.02287713747156
O           -3.08998471282312       -0.37561586703400        0.08021560535311
N           -1.03051880889883       -1.32658612154856       -0.00324840820921
C           -1.59062718882468       -2.66222790380562        0.04299585150857
H            4.80935357089968        2.22149225699548        2.02168730583905
H            4.15137643574360        0.80142430015502       -0.37572055830780
H            2.72668789900944        2.02633062606386       -0.28936164975902
H            3.45641437664021       -1.75013943133000       -0.26506814447475
H           -1.70616003120303        3.07489637452645        0.01439940922393
H           -2.91415496220249        2.10320267226435       -0.87348929946158
H           -2.89932151304811        2.07303004422291        0.89289295289170
H           -1.25280121458588       -3.18878302631072        0.93603550219658
H           -1.31427970650294       -3.22261322940958       -0.85090831947364
H           -2.67482805746278       -2.56178682783014        0.07877407327070
H            1.24182090317019       -3.00758475535213       -0.11304140407039

          :  Hamiltonian                  GFN2-xTB          :
         :: total energy             -42.108171020370 Eh    ::
         :: gradient norm              0.003547585046 Eh/a0 ::
         :: HOMO-LUMO gap              0.330599293318 eV    ::
         :: SCC energy               -42.631199248664 Eh    ::
         :: -> dispersion             -0.022731665039 Eh    ::
         :: repulsion energy           0.522922153983 Eh    ::

    * Orbital Energies and Occupations

         #    Occupation            Energy/Eh            Energy/eV
      -------------------------------------------------------------
         1        2.0000           -0.9111501             -24.7937
       ...           ...                  ...                  ...
        25        1.9999           -0.6682573             -18.1842
        26        1.9999           -0.6682097             -18.1829
        27        1.9999           -0.6589841             -17.9319
        28        1.9995           -0.6369424             -17.3321
        29        1.9994           -0.6327675             -17.2185
        30        1.9991           -0.6273703             -17.0716
        31        1.9986           -0.6196197             -16.8607
        32        1.9953           -0.6006300             -16.3440
        33        1.9846           -0.5817584             -15.8305
        34        1.9558           -0.5648272             -15.3697
        35        1.9498           -0.5627427             -15.3130
        36        1.9440           -0.5609821             -15.2651
        37        1.2708           -0.5136064             -13.9759 (HOMO)
        38        0.8945           -0.5014571             -13.6453 (LUMO)
        39        0.0054           -0.4112628             -11.1910
        40        0.0030           -0.4020931             -10.9415
        41        0.0004           -0.3688531             -10.0370
        42        0.0000           -0.2871356              -7.8134
        43                         -0.2075977              -5.6490
        44                         -0.1869907              -5.0883
        45                         -0.1449873              -3.9453
        46                         -0.1161955              -3.1618
        47                         -0.0831372              -2.2623
        48                         -0.0510710              -1.3897
       ...                                ...                  ...
        67                          0.5544586              15.0876
      -------------------------------------------------------------
                  HL-Gap            0.0121493 Eh            0.3306 eV

     #   Z          covCN         q      C6AA      α(0)
     1   6 C        2.790    -0.069    29.705     8.928
     2   7 N        2.808     0.130    19.033     6.479
     3   6 C        3.037     0.026    27.396     8.585
     4   7 N        2.779    -0.058    22.366     7.024
     5   6 C        3.022     0.120    25.349     8.259
     6   6 C        3.109    -0.038    28.796     8.792
     7   6 C        2.764     0.275    22.351     7.742
     8   8 O        0.858    -0.356    20.820     6.118
     9   7 N        2.746    -0.081    22.817     7.094
    10   6 C        3.710    -0.062    21.839     6.679
    11   6 C        2.728     0.318    21.593     7.608
    12   8 O        0.860    -0.349    20.696     6.099
    13   7 N        2.738    -0.053    22.265     7.008
    14   6 C        3.696    -0.073    22.072     6.720
    15   1 H        0.000     0.050     5.788     4.399
    16   1 H        0.926     0.109     1.706     2.043
    17   1 H        0.926     0.140     1.460     1.889
    18   1 H        0.926     0.121     1.601     1.979
    19   1 H        0.925     0.116     1.644     2.005
    20   1 H        0.924     0.103     1.759     2.074
    21   1 H        0.925     0.104     1.748     2.067
    22   1 H        0.924     0.086     1.917     2.165
    23   1 H        0.924     0.085     1.926     2.171
    24   1 H        0.925     0.129     1.541     1.941
    25   1 H        0.860     0.228     0.973     1.545

Wiberg/Mayer (AO) data.
largest (>0.10) Wiberg bond orders for each atom

     #   Z sym  total        # sym  WBO       # sym  WBO       # sym  WBO
 ---------------------------------------------------------------------------
     1   6 C    3.410 --     2 N    1.333    16 H    0.966    17 H    0.956
     2   7 N    3.765 --     1 C    1.333     3 C    1.247     6 C    1.088
     3   6 C    3.642 --     2 N    1.247     4 N    1.241    18 H    0.955
     4   7 N    3.526 --     3 C    1.241     5 C    1.193    25 H    0.919
     5   6 C    3.938 --     6 C    1.350    13 N    1.218     4 N    1.193
     6   6 C    3.845 --     5 C    1.350     2 N    1.088     7 C    1.084
     7   6 C    3.959 --     8 O    1.688     9 N    1.092     6 C    1.084
     8   8 O    2.022 --     7 C    1.688     9 N    0.139
     9   7 N    3.531 --    11 C    1.126     7 C    1.092    10 C    0.972
                             8 O    0.139    12 O    0.133
    10   6 C    3.898 --     9 N    0.972    19 H    0.965    21 H    0.958
                            20 H    0.957
    11   6 C    3.958 --    12 O    1.706     9 N    1.126    13 N    1.035
    12   8 O    2.046 --    11 C    1.706     9 N    0.133    13 N    0.118
    13   7 N    3.532 --     5 C    1.218    11 C    1.035    14 C    0.975
                            12 O    0.118
    14   6 C    3.919 --    13 N    0.975    23 H    0.968    22 H    0.968
                            24 H    0.963
    15   1 H    0.020
    16   1 H    0.987 --     1 C    0.966
    17   1 H    0.980 --     1 C    0.956
    18   1 H    0.984 --     3 C    0.955
    19   1 H    0.983 --    10 C    0.965
    20   1 H    0.976 --    10 C    0.957
    21   1 H    0.977 --    10 C    0.958
    22   1 H    0.986 --    14 C    0.968
    23   1 H    0.986 --    14 C    0.968
    24   1 H    0.982 --    14 C    0.963
    25   1 H    0.947 --     4 N    0.919
 ---------------------------------------------------------------------------

molecular dipole:
                 x           y           z       tot (Debye)
 q only:        2.308      -1.957      -0.052
   full:        2.590      -2.427      -0.068       9.023

           -------------------------------------------------
          | TOTAL ENERGY              -42.108171020370 Eh   |
          | GRADIENT NORM               0.003547585046 Eh/α |
          | HOMO-LUMO GAP               0.330599293318 eV   |
           -------------------------------------------------

 * finished run on 2024/06/05 at 20:00:07.523
