   * xtb version 6.6.1 (8d0f1dd) compiled by 'conda@1efc2f54142f' on 2023-08-01
          program call               : xtb struc.xyz --opt loose --input .xc1 --gfn2

   ID    Z sym.   atoms
    1    6 C      1, 3, 5-7, 10, 11, 14
    2    7 N      2, 4, 9, 13
    3    8 O      8, 12
    4    1 H      15-25
constraining bond 6 25 to    5.1400000 Å, actual value:    3.1881491 Å

          :  Hamiltonian                  GFN2-xTB          :
 * total energy  :   -35.4454779 Eh     change       -0.6650680E-10 Eh
 * total energy  :   -38.4941673 Eh     change       -0.3048689E+01 Eh
 * total energy  :   -40.5027356 Eh     change       -0.2008568E+01 Eh
 * total energy  :   -41.5261671 Eh     change       -0.1023431E+01 Eh
 * total energy  :   -41.8545624 Eh     change       -0.3283953E+00 Eh
 * total energy  :   -41.8974812 Eh     change       -0.4291884E-01 Eh
 * total energy  :   -41.9228066 Eh     change       -0.2532541E-01 Eh
 * total energy  :   -41.9680583 Eh     change       -0.4525163E-01 Eh
 * total energy  :   -41.9964591 Eh     change       -0.2840085E-01 Eh
 * total energy  :   -42.0456183 Eh     change       -0.4915915E-01 Eh
 * total energy  :   -42.1285629 Eh     change       -0.1511988E-02 Eh
 * total energy  :   -42.1293194 Eh     change       -0.7565186E-03 Eh
 * total energy  :   -42.1297515 Eh     change       -0.4321017E-03 Eh
 * total energy  :   -42.1302016 Eh     change       -0.4501062E-03 Eh
 * total energy  :   -42.1306064 Eh     change       -0.4047745E-03 Eh
 * total energy  :   -42.1318150 Eh     change       -0.1208664E-02 Eh
 * total energy  :   -42.1322755 Eh     change       -0.4605130E-03 Eh
 * total energy  :   -42.1323495 Eh     change       -0.7393925E-04 Eh
 * total energy  :   -42.1323868 Eh     change       -0.3734361E-04 Eh
   *** GEOMETRY OPTIMIZATION CONVERGED AFTER 25 ITERATIONS ***

 final structure:
================
25
 xtb: 6.6.1 (8d0f1dd)
C            3.22018933293195        1.20269112570712        0.01907921291710
N            2.23401445105178        0.15995878657097        0.00056311378429
C            2.45905317028327       -1.17536843921546       -0.00576878961239
N            1.35308691239000       -1.88466706776639       -0.00549170645648
C            0.34701992253502       -0.98363252412242        0.00228209087088
C            0.88166031642446        0.31551034846800        0.00698512197663
C            0.04155025238351        1.48847881163728       -0.00200398148825
O            0.42637924741106        2.63584090739236       -0.01532442957708
N           -1.31158030239162        1.14879984931253        0.00242796850584
C           -2.27975677327665        2.23087689709916       -0.00244769280710
C           -1.86170245410666       -0.12757568875144        0.00522397063204
O           -3.05286648167725       -0.29643640784588        0.00787324302151
N           -0.97815361016040       -1.21262258543808        0.00354461224896
C           -1.50014775087103       -2.55749135454966       -0.00107954779633
H            3.72314509486134        1.22995877099988        0.98820168658396
H            3.96760327640091        1.02579041887433       -0.75483410564212
H            2.73077118673789        2.16166328809019       -0.15168642541271
H            3.44166811627483       -1.60563945394154       -0.01188499066955
H           -1.74085795179850        3.17596670215292        0.00553779489452
H           -2.91103550731225        2.16136851813054       -0.89026535813749
H           -2.92696978908277        2.15381141690436        0.87304567191082
H           -1.14100742320248       -3.09471060176158        0.87753579931753
H           -1.15658476629941       -3.08300748175411       -0.89298542406760
H           -2.58775361205757       -2.50711430441186        0.00831849954419
H            1.78270665665057       -4.74421139018122       -0.03567471664112

          :  Hamiltonian                  GFN2-xTB          :
         :: total energy             -42.132386825710 Eh    ::
         :: gradient norm              0.001247041909 Eh/a0 ::
         :: HOMO-LUMO gap              0.708902428198 eV    ::
         :: SCC energy               -42.643887033110 Eh    ::
         :: -> dispersion             -0.022475452319 Eh    ::
         :: repulsion energy           0.511406383016 Eh    ::

    * Orbital Energies and Occupations

         #    Occupation            Energy/Eh            Energy/eV
      -------------------------------------------------------------
         1        2.0000           -0.8928173             -24.2948
       ...           ...                  ...                  ...
        25        1.9995           -0.6669977             -18.1499
        26        1.9991           -0.6571649             -17.8824
        27        1.9983           -0.6457880             -17.5728
        28        1.9976           -0.6406260             -17.4323
        29        1.9947           -0.6280485             -17.0901
        30        1.9891           -0.6167031             -16.7813
        31        1.9873           -0.6142681             -16.7151
        32        1.9780           -0.6054759             -16.4758
        33        1.9649           -0.5979899             -16.2721
        34        1.9181           -0.5842124             -15.8972
        35        1.8835           -0.5783336             -15.7373
        36        1.8804           -0.5778866             -15.7251
        37        1.5743           -0.5549781             -15.1017 (HOMO)
        38        0.8329           -0.5289264             -14.3928 (LUMO)
        39        0.0030           -0.4311225             -11.7314
        40        0.0002           -0.3896221             -10.6022
        41        0.0001           -0.3738719             -10.1736
        42        0.0000           -0.2950386              -8.0284
        43                         -0.2060289              -5.6063
        44                         -0.1581963              -4.3047
        45                         -0.1374941              -3.7414
        46                         -0.0794983              -2.1633
        47                         -0.0582369              -1.5847
        48                         -0.0383220              -1.0428
       ...                                ...                  ...
        67                          0.5353559              14.5678
      -------------------------------------------------------------
                  HL-Gap            0.0260517 Eh            0.7089 eV

     #   Z          covCN         q      C6AA      α(0)
     1   6 C        3.689    -0.082    22.268     6.754
     2   7 N        2.830     0.052    20.332     6.697
     3   6 C        3.186     0.097    25.411     8.225
     4   7 N        1.897    -0.209    26.375     7.614
     5   6 C        3.168     0.134    24.755     8.129
     6   6 C        3.117    -0.007    28.022     8.671
     7   6 C        2.763     0.274    22.372     7.746
     8   8 O        0.858    -0.330    20.336     6.046
     9   7 N        2.746    -0.069    22.571     7.056
    10   6 C        3.708    -0.062    21.841     6.680
    11   6 C        2.728     0.317    21.614     7.611
    12   8 O        0.860    -0.330    20.339     6.047
    13   7 N        2.739    -0.019    21.611     6.904
    14   6 C        3.700    -0.073    22.061     6.717
    15   1 H        0.924     0.110     1.697     2.037
    16   1 H        0.924     0.107     1.721     2.051
    17   1 H        0.925     0.126     1.568     1.958
    18   1 H        0.926     0.110     1.700     2.039
    19   1 H        0.925     0.123     1.592     1.973
    20   1 H        0.924     0.115     1.652     2.010
    21   1 H        0.924     0.116     1.649     2.008
    22   1 H        0.924     0.111     1.686     2.030
    23   1 H        0.924     0.111     1.686     2.030
    24   1 H        0.925     0.128     1.554     1.949
    25   1 H        0.000     0.151     3.448     3.395

Wiberg/Mayer (AO) data.
largest (>0.10) Wiberg bond orders for each atom

     #   Z sym  total        # sym  WBO       # sym  WBO       # sym  WBO
 ---------------------------------------------------------------------------
     1   6 C    3.904 --     2 N    0.995    17 H    0.960    16 H    0.957
                            15 H    0.948
     2   7 N    3.637 --     3 C    1.269     6 C    1.218     1 C    0.995
     3   6 C    3.868 --     4 N    1.487     2 N    1.269    18 H    0.954
     4   7 N    2.972 --     3 C    1.487     5 C    1.266
     5   6 C    3.899 --     4 N    1.266     6 C    1.254    13 N    1.209
     6   6 C    3.797 --     5 C    1.254     2 N    1.218     7 C    1.075
     7   6 C    3.946 --     8 O    1.674     9 N    1.100     6 C    1.075
     8   8 O    1.961 --     7 C    1.674     9 N    0.127
     9   7 N    3.501 --    11 C    1.107     7 C    1.100    10 C    0.979
                             8 O    0.127    12 O    0.117
    10   6 C    3.868 --     9 N    0.979    19 H    0.960    21 H    0.943
                            20 H    0.943
    11   6 C    3.951 --    12 O    1.685     9 N    1.107    13 N    1.069
    12   8 O    1.974 --    11 C    1.685     9 N    0.117    13 N    0.101
    13   7 N    3.483 --     5 C    1.209    11 C    1.069    14 C    0.983
                            12 O    0.101
    14   6 C    3.887 --    13 N    0.983    24 H    0.962    22 H    0.948
                            23 H    0.948
    15   1 H    0.974 --     1 C    0.948
    16   1 H    0.978 --     1 C    0.957
    17   1 H    0.978 --     1 C    0.960
    18   1 H    0.986 --     3 C    0.954
    19   1 H    0.978 --    10 C    0.960
    20   1 H    0.960 --    10 C    0.943
    21   1 H    0.961 --    10 C    0.943
    22   1 H    0.965 --    14 C    0.948
    23   1 H    0.964 --    14 C    0.948
    24   1 H    0.980 --    14 C    0.962
    25   1 H    0.017
 ---------------------------------------------------------------------------

molecular dipole:
                 x           y           z       tot (Debye)
 q only:        1.605      -1.615       0.006
   full:        1.876      -1.493       0.013       6.095

           -------------------------------------------------
          | TOTAL ENERGY              -42.132386825710 Eh   |
          | GRADIENT NORM               0.001247041909 Eh/α |
          | HOMO-LUMO GAP               0.708902428198 eV   |
           -------------------------------------------------

 * finished run on 2024/06/05 at 19:57:58.113
