   * xtb version 6.6.1 (8d0f1dd) compiled by 'conda@1efc2f54142f' on 2023-08-01
          program call               : xtb xtbopt.xyz --opt crude --input .xc2 --gfn2

   ID    Z sym.   atoms
    1    6 C      1, 3, 5-7, 10, 11, 14
    2    7 N      2, 4, 9, 13
    3    8 O      8, 12
    4    1 H      15-25

          :  Hamiltonian                  GFN2-xTB          :
 * total energy  :   -42.1060057 Eh     change       -0.1065814E-11 Eh
   *** GEOMETRY OPTIMIZATION CONVERGED AFTER 1 ITERATIONS ***

 final structure:
================
25
 xtb: 6.6.1 (8d0f1dd)
C            3.12162592957764        1.16502419161207       -0.05060674192440
N            2.21511245815383        0.04885892267932       -0.02659599008149
C            2.53703916219278       -1.24149526935612        0.00239519964666
N            1.41246010634708       -1.99505712169967        0.02704307622248
C            0.34065702700695       -1.15403868725146        0.01341109138547
C            0.83947035521718        0.14210000889216       -0.01904378931356
C           -0.01055213471463        1.29381375118520       -0.04641232582279
O            0.32299878072950        2.45755509955380       -0.08560423162824
N           -1.39796732058599        0.92039396962487       -0.02478313601728
C           -2.29736960984287        1.91329642011575       -0.02280204084904
C           -1.90979336253362       -0.41430541128688       -0.01155084080206
O           -3.09090299355984       -0.62339332386364       -0.02215082759230
N           -0.97669885438849       -1.44497016324576        0.01669303901795
C           -1.45011380638867       -2.81722505843736        0.05092953508725
H            3.60779661501978        1.28042657309394        0.91929539685199
H            3.88622348896796        1.01447352154692       -0.81148535912483
H            2.55643751902994        2.07038717588167       -0.26792122754388
H            3.53431894056797       -1.63334497565678        0.00616531145372
H           -1.43908757594886        4.70011186598374        0.17825650214766
H           -1.93493618269072        2.94139749078420       -0.00773657825848
H           -3.34204722495664        1.66581794268929       -0.01495368794196
H           -1.12759485478614       -3.30709869497259        0.96989916988120
H           -1.08741065423251       -3.36656057049445       -0.81777072347686
H           -2.53865909166687       -2.79350526308073        0.02593000086651
H            1.38942479758533       -3.00442385269744        0.05057079571625

          :  Hamiltonian                  GFN2-xTB          :
         :: total energy             -42.106005733746 Eh    ::
         :: gradient norm              0.003265119988 Eh/a0 ::
         :: HOMO-LUMO gap              0.088547879136 eV    ::
         :: SCC energy               -42.624662656349 Eh    ::
         :: -> dispersion             -0.022907667186 Eh    ::
         :: repulsion energy           0.518566873511 Eh    ::

    * Orbital Energies and Occupations

         #    Occupation            Energy/Eh            Energy/eV
      -------------------------------------------------------------
         1        2.0000           -0.9108226             -24.7847
       ...           ...                  ...                  ...
        25        2.0000           -0.6715025             -18.2725
        26        2.0000           -0.6688189             -18.1995
        27        2.0000           -0.6626548             -18.0318
        28        1.9999           -0.6327901             -17.2191
        29        1.9999           -0.6298018             -17.1378
        30        1.9999           -0.6278577             -17.0849
        31        1.9998           -0.6186746             -16.8350
        32        1.9997           -0.6140264             -16.7085
        33        1.9997           -0.6135663             -16.6960
        34        1.9983           -0.5852846             -15.9264
        35        1.9943           -0.5664523             -15.4140
        36        1.9906           -0.5584782             -15.1970
        37        0.9903           -0.4734437             -12.8831 (HOMO)
        38        0.8881           -0.4701896             -12.7945 (LUMO)
        39        0.1185           -0.4299738             -11.7002
        40        0.0179           -0.3992038             -10.8629
        41        0.0032           -0.3719234             -10.1205
        42        0.0000           -0.2873296              -7.8186
        43        0.0000           -0.2083804              -5.6703
        44                         -0.1965528              -5.3485
        45                         -0.1505664              -4.0971
        46                         -0.1456031              -3.9621
        47                         -0.0784604              -2.1350
        48                         -0.0547527              -1.4899
       ...                                ...                  ...
        67                          0.5477322              14.9046
      -------------------------------------------------------------
                  HL-Gap            0.0032541 Eh            0.0885 eV

     #   Z          covCN         q      C6AA      α(0)
     1   6 C        3.691    -0.094    22.484     6.785
     2   7 N        2.829     0.077    19.899     6.625
     3   6 C        3.050     0.047    26.905     8.507
     4   7 N        2.791    -0.058    22.358     7.023
     5   6 C        3.041     0.105    25.634     8.304
     6   6 C        3.110    -0.023    28.434     8.736
     7   6 C        2.776     0.253    22.742     7.811
     8   8 O        0.857    -0.365    20.986     6.142
     9   7 N        2.740    -0.031    21.849     6.942
    10   6 C        2.813    -0.021    28.525     8.751
    11   6 C        2.736     0.309    21.757     7.637
    12   8 O        0.859    -0.350    20.707     6.101
    13   7 N        2.737    -0.049    22.186     6.996
    14   6 C        3.699    -0.073    22.077     6.720
    15   1 H        0.924     0.108     1.715     2.048
    16   1 H        0.925     0.104     1.749     2.068
    17   1 H        0.925     0.134     1.504     1.918
    18   1 H        0.926     0.123     1.586     1.970
    19   1 H        0.000     0.014     7.057     4.857
    20   1 H        0.924     0.136     1.487     1.907
    21   1 H        0.926     0.130     1.536     1.938
    22   1 H        0.925     0.084     1.936     2.176
    23   1 H        0.925     0.084     1.942     2.179
    24   1 H        0.925     0.127     1.557     1.951
    25   1 H        0.860     0.229     0.970     1.543

Wiberg/Mayer (AO) data.
largest (>0.10) Wiberg bond orders for each atom

     #   Z sym  total        # sym  WBO       # sym  WBO       # sym  WBO
 ---------------------------------------------------------------------------
     1   6 C    3.917 --     2 N    0.987    16 H    0.964    17 H    0.961
                            15 H    0.956
     2   7 N    3.648 --     3 C    1.378     6 C    1.146     1 C    0.987
     3   6 C    3.819 --     2 N    1.378     4 N    1.266    18 H    0.953
     4   7 N    3.579 --     3 C    1.266     5 C    1.194    25 H    0.919
     5   6 C    3.898 --     6 C    1.328     4 N    1.194    13 N    1.188
     6   6 C    3.909 --     5 C    1.328     2 N    1.146     7 C    1.117
     7   6 C    3.866 --     8 O    1.670     6 C    1.117     9 N    0.988
     8   8 O    1.953 --     7 C    1.670     9 N    0.107
     9   7 N    3.614 --    10 C    1.349    11 C    1.008     7 C    0.988
                             8 O    0.107
    10   6 C    3.307 --     9 N    1.349    21 H    0.958    20 H    0.913
    11   6 C    3.902 --    12 O    1.709    13 N    1.091     9 N    1.008
    12   8 O    2.021 --    11 C    1.709    13 N    0.135
    13   7 N    3.565 --     5 C    1.188    11 C    1.091    14 C    0.970
                            12 O    0.135
    14   6 C    3.924 --    23 H    0.972    22 H    0.971    13 N    0.970
                            24 H    0.965
    15   1 H    0.983 --     1 C    0.956
    16   1 H    0.986 --     1 C    0.964
    17   1 H    0.982 --     1 C    0.961
    18   1 H    0.984 --     3 C    0.953
    19   1 H    0.054
    20   1 H    0.981 --    10 C    0.913
    21   1 H    0.980 --    10 C    0.958
    22   1 H    0.991 --    14 C    0.971
    23   1 H    0.991 --    14 C    0.972
    24   1 H    0.983 --    14 C    0.965
    25   1 H    0.947 --     4 N    0.919
 ---------------------------------------------------------------------------

molecular dipole:
                 x           y           z       tot (Debye)
 q only:        2.295      -1.971       0.058
   full:        2.539      -2.420       0.083       8.918

           -------------------------------------------------
          | TOTAL ENERGY              -42.106005733746 Eh   |
          | GRADIENT NORM               0.003265119988 Eh/α |
          | HOMO-LUMO GAP               0.088547879136 eV   |
           -------------------------------------------------

 * finished run on 2024/06/05 at 19:58:06.104
