   * xtb version 6.6.1 (8d0f1dd) compiled by 'conda@1efc2f54142f' on 2023-08-01
          program call               : xtb xtbopt.xyz --opt crude --input .xc2 --gfn2

   ID    Z sym.   atoms
    1    6 C      1, 3, 5-7, 10, 11, 14
    2    7 N      2, 4, 9, 13
    3    8 O      8, 12
    4    1 H      15-25
########################################################################
[WARNING] Please study the warnings concerning your input carefully
-1- readin_getIntValue: could not parse ''
########################################################################

          :  Hamiltonian                  GFN2-xTB          :
 * total energy  :   -40.3181780 Eh     change       -0.4760636E-12 Eh
 * total energy  :   -42.1362968 Eh     change       -0.1818119E+01 Eh
 * total energy  :   -42.1658642 Eh     change       -0.2956733E-01 Eh
 * total energy  :   -42.1685132 Eh     change       -0.2649030E-02 Eh
 * total energy  :   -42.1692672 Eh     change       -0.7540670E-03 Eh
 * total energy  :   -42.1699718 Eh     change       -0.7045071E-03 Eh
 * total energy  :   -42.1710269 Eh     change       -0.1055152E-02 Eh
 * total energy  :   -42.1722352 Eh     change       -0.1208263E-02 Eh
 * total energy  :   -42.1730881 Eh     change       -0.8529707E-03 Eh
 * total energy  :   -42.1734341 Eh     change       -0.3459240E-03 Eh
 * total energy  :   -42.1735983 Eh     change       -0.1642228E-03 Eh
 * total energy  :   -42.1737534 Eh     change       -0.1550863E-03 Eh
 * total energy  :   -42.1739913 Eh     change       -0.2379113E-03 Eh
 * total energy  :   -42.1742545 Eh     change       -0.2632597E-03 Eh
 * total energy  :   -42.1744682 Eh     change       -0.2136324E-03 Eh
   *** GEOMETRY OPTIMIZATION CONVERGED AFTER 15 ITERATIONS ***

 final structure:
================
25
 xtb: 6.6.1 (8d0f1dd)
C            3.30302697633163        1.11533961421955        0.02359653689491
N            2.31868411469385        0.06781795002202        0.00922554251859
C            2.55036096579350       -1.25118095696274       -0.00512295055508
N            1.36788301706583       -1.92350701752325       -0.01324559535192
C            0.35998383421124       -1.00543555695630       -0.00568138008407
C            0.94860850405668        0.26108779243380        0.01124956792161
C            0.20413943937407        1.46560192605427        0.03946896033365
O            0.60514068415991        2.60909983775592        0.05741114850910
N           -1.24517622278472        1.20237509571408        0.06724984592991
C           -2.01409615183409        2.30106794089936        0.15312552084234
C           -1.75675278648483       -0.04857982626017       -0.03682056254511
O           -3.08350663871016       -0.26904534258979       -0.09056469149695
N           -0.97725513769726       -1.18358191152038       -0.03673870066594
C           -1.55900531096660       -2.51050116263042       -0.06297937293639
H            3.89991686614938        1.06590596693507        0.93520198383112
H            3.96694810541059        1.02436275324485       -0.83650059350992
H            2.78792484798972        2.07388631004381       -0.01473821222028
H            3.51429783923591       -1.71499772616663       -0.00757495473925
H           -1.50650077642438        3.24332824881125        0.17611245380732
H           -3.57846644496854        0.51359308685947       -0.36859479375808
H           -3.07711810778464        2.24023400826141        0.27695063633750
H           -1.30041053706529       -3.05003146334888        0.84937687638874
H           -1.19653183310748       -3.06008479263164       -0.93300718282431
H           -2.63986105766323       -2.42178357783626       -0.12400156012289
H            1.26819732511884       -2.92673265522828       -0.03222690460428

          :  Hamiltonian                  GFN2-xTB          :
         :: total energy             -42.174468178921 Eh    ::
         :: gradient norm              0.007308860246 Eh/a0 ::
         :: HOMO-LUMO gap              1.197459081423 eV    ::
         :: SCC energy               -42.690310536752 Eh    ::
         :: -> dispersion             -0.022942068517 Eh    ::
         :: repulsion energy           0.515736211941 Eh    ::

    * Orbital Energies and Occupations

         #    Occupation            Energy/Eh            Energy/eV
      -------------------------------------------------------------
         1        2.0000           -0.8889737             -24.1902
       ...           ...                  ...                  ...
        25        2.0000           -0.6668848             -18.1469
        26        2.0000           -0.6608728             -17.9833
        27        2.0000           -0.6529110             -17.7666
        28        2.0000           -0.6408209             -17.4376
        29        2.0000           -0.6286441             -17.1063
        30        2.0000           -0.6245631             -16.9952
        31        2.0000           -0.6154152             -16.7463
        32        2.0000           -0.6140200             -16.7083
        33        1.9999           -0.5966639             -16.2361
        34        1.9999           -0.5956204             -16.2077
        35        1.9981           -0.5521114             -15.0237
        36        1.9979           -0.5507089             -14.9856
        37        1.5634           -0.4623172             -12.5803 (HOMO)
        38        0.3638           -0.4183114             -11.3828 (LUMO)
        39        0.0491           -0.3838250             -10.4444
        40        0.0280           -0.3747690             -10.1980
        41        0.0001           -0.2750149              -7.4835
        42        0.0000           -0.2034943              -5.5374
        43        0.0000           -0.1859952              -5.0612
        44                         -0.1578244              -4.2946
        45                         -0.1232249              -3.3531
        46                         -0.1047792              -2.8512
        47                         -0.0493454              -1.3428
        48                         -0.0353115              -0.9609
       ...                                ...                  ...
        67                          0.5530611              15.0496
      -------------------------------------------------------------
                  HL-Gap            0.0440058 Eh            1.1975 eV

     #   Z          covCN         q      C6AA      α(0)
     1   6 C        3.690    -0.090    22.419     6.776
     2   7 N        2.821     0.060    20.192     6.674
     3   6 C        3.027     0.034    27.203     8.555
     4   7 N        2.779    -0.067    22.544     7.052
     5   6 C        3.048     0.086    26.037     8.369
     6   6 C        3.084    -0.027    28.580     8.764
     7   6 C        2.777     0.241    22.963     7.849
     8   8 O        0.857    -0.373    21.158     6.167
     9   7 N        2.736    -0.015    21.549     6.894
    10   6 C        2.810    -0.091    30.266     9.013
    11   6 C        2.752     0.204    23.655     7.964
    12   8 O        1.660    -0.354    19.984     6.035
    13   7 N        2.736    -0.013    21.512     6.889
    14   6 C        3.697    -0.077    22.149     6.732
    15   1 H        0.924     0.098     1.800     2.098
    16   1 H        0.924     0.097     1.809     2.103
    17   1 H        0.925     0.129     1.540     1.941
    18   1 H        0.927     0.112     1.677     2.025
    19   1 H        0.926     0.114     1.660     2.015
    20   1 H        0.805     0.350     0.589     1.205
    21   1 H        0.926     0.066     2.129     2.282
    22   1 H        0.924     0.089     1.892     2.151
    23   1 H        0.924     0.086     1.918     2.166
    24   1 H        0.925     0.122     1.596     1.975
    25   1 H        0.860     0.218     1.018     1.581

Wiberg/Mayer (AO) data.
largest (>0.10) Wiberg bond orders for each atom

     #   Z sym  total        # sym  WBO       # sym  WBO       # sym  WBO
 ---------------------------------------------------------------------------
     1   6 C    3.924 --     2 N    0.990    16 H    0.964    17 H    0.963
                            15 H    0.962
     2   7 N    3.582 --     3 C    1.333     6 C    1.130     1 C    0.990
     3   6 C    3.718 --     2 N    1.333     4 N    1.237    18 H    0.957
     4   7 N    3.527 --     3 C    1.237     5 C    1.184    25 H    0.924
     5   6 C    3.883 --     6 C    1.289     4 N    1.184    13 N    1.183
     6   6 C    3.890 --     5 C    1.289     7 C    1.165     2 N    1.130
     7   6 C    3.843 --     8 O    1.660     6 C    1.165     9 N    0.913
     8   8 O    1.966 --     7 C    1.660     9 N    0.102
     9   7 N    3.659 --    10 C    1.298    11 C    1.212     7 C    0.913
                             8 O    0.102
    10   6 C    3.525 --     9 N    1.298    21 H    0.965    19 H    0.961
                            11 C    0.144
    11   6 C    3.718 --     9 N    1.212    13 N    1.144    12 O    1.105
                            10 C    0.144
    12   8 O    2.113 --    11 C    1.105    20 H    0.839
    13   7 N    3.542 --     5 C    1.183    11 C    1.144    14 C    0.975
    14   6 C    3.927 --    13 N    0.975    23 H    0.971    22 H    0.969
                            24 H    0.968
    15   1 H    0.983 --     1 C    0.962
    16   1 H    0.984 --     1 C    0.964
    17   1 H    0.983 --     1 C    0.963
    18   1 H    0.986 --     3 C    0.957
    19   1 H    0.986 --    10 C    0.961
    20   1 H    0.875 --    12 O    0.839
    21   1 H    0.995 --    10 C    0.965
    22   1 H    0.988 --    14 C    0.969
    23   1 H    0.989 --    14 C    0.971
    24   1 H    0.985 --    14 C    0.968
    25   1 H    0.952 --     4 N    0.924
 ---------------------------------------------------------------------------

molecular dipole:
                 x           y           z       tot (Debye)
 q only:        0.695      -2.166      -0.205
   full:        0.609      -2.499      -0.241       6.566

           -------------------------------------------------
          | TOTAL ENERGY              -42.174468178921 Eh   |
          | GRADIENT NORM               0.007308860246 Eh/α |
          | HOMO-LUMO GAP               1.197459081423 eV   |
           -------------------------------------------------

 * finished run on 2024/06/05 at 19:57:52.112
