   * xtb version 6.6.1 (8d0f1dd) compiled by 'conda@1efc2f54142f' on 2023-08-01
          program call               : xtb struc.xyz --opt loose --input .xc1 --gfn2

   ID    Z sym.   atoms
    1    6 C      1, 3, 5-7, 10, 11, 14
    2    7 N      2, 4, 9, 13
    3    8 O      8, 12
    4    1 H      15-25
constraining bond 4 18 to    4.0600000 Å, actual value:    2.1494719 Å

          :  Hamiltonian                  GFN2-xTB          :
 * total energy  :   -35.7278814 Eh     change       -0.6633627E-10 Eh
 * total energy  :   -38.5803535 Eh     change       -0.2852472E+01 Eh
 * total energy  :   -40.6637022 Eh     change       -0.2083349E+01 Eh
 * total energy  :   -41.6421417 Eh     change       -0.9784396E+00 Eh
 * total energy  :   -41.8879885 Eh     change       -0.2458467E+00 Eh
 * total energy  :   -41.9054461 Eh     change       -0.1745761E-01 Eh
 * total energy  :   -41.9140280 Eh     change       -0.8581982E-02 Eh
 * total energy  :   -41.9276795 Eh     change       -0.1365148E-01 Eh
 * total energy  :   -41.9372695 Eh     change       -0.9590003E-02 Eh
 * total energy  :   -41.9441397 Eh     change       -0.6870145E-02 Eh
 * total energy  :   -42.0398187 Eh     change       -0.4071382E-03 Eh
 * total energy  :   -42.0398984 Eh     change       -0.7962983E-04 Eh
 * total energy  :   -42.0400016 Eh     change       -0.1032710E-03 Eh
 * total energy  :   -42.0401012 Eh     change       -0.9958002E-04 Eh
 * total energy  :   -42.0401708 Eh     change       -0.6960377E-04 Eh
 * total energy  :   -42.0402413 Eh     change       -0.7042545E-04 Eh
 * total energy  :   -42.0403000 Eh     change       -0.5873325E-04 Eh
 * total energy  :   -42.0403475 Eh     change       -0.4751890E-04 Eh
 * total energy  :   -42.0403730 Eh     change       -0.2546934E-04 Eh
   *** GEOMETRY OPTIMIZATION CONVERGED AFTER 66 ITERATIONS ***

 final structure:
================
25
 xtb: 6.6.1 (8d0f1dd)
C            3.06520103583619        0.94982901532083        0.64058886647317
N            2.38253826659526        0.13043827463952       -0.36043690418365
C            2.94113178040430       -0.32517302304462       -1.38769963092824
N            1.13690410619265       -2.32280645321997        0.26123727091478
C            0.38499612047681       -1.30443231119543        0.06254363363757
C            0.98030370206720       -0.02288158740493       -0.15150513853664
C            0.19488173385127        1.19367959532605       -0.19533390952000
O            0.68032126518486        2.30443614941671       -0.29718848367045
N           -1.17420598218304        0.99991156446494       -0.13709833050305
C           -2.03363336412127        2.15997015598799       -0.23916406814724
C           -1.81231855329632       -0.22699239521115       -0.01656758315616
O           -3.01171619162761       -0.30435796588997        0.00275742370642
N           -0.99965793724545       -1.34426015105435        0.09714331273031
C           -1.66161656350644       -2.62683106372703        0.26482265866047
H            2.85747844323685        0.54834207723188        1.63477062028452
H            4.13908571621285        0.94867102535045        0.45978952848610
H            2.68543966375908        1.97241982329474        0.57121036688855
H            3.96095497584200       -0.18834931156113       -1.72113598351305
H           -1.43110610067310        3.05221224510735       -0.08214182140353
H           -2.49724485013418        2.20170376083789       -1.22831478688419
H           -2.83316902534075        2.08446902790023        0.49867429847630
H           -1.46806050975523       -3.03466905714237        1.26040867842746
H           -1.32256918169137       -3.33038385453620       -0.49824199704660
H           -2.73393424056714       -2.46788942701911        0.15306454213625
H            0.73042720458101       -3.22881757227232        0.43898905457131

          :  Hamiltonian                  GFN2-xTB          :
         :: total energy             -42.040372980677 Eh    ::
         :: gradient norm              0.003786593128 Eh/a0 ::
         :: HOMO-LUMO gap              0.009758160235 eV    ::
         :: SCC energy               -42.556083224870 Eh    ::
         :: -> dispersion             -0.022487947028 Eh    ::
         :: repulsion energy           0.515527716754 Eh    ::

    * Orbital Energies and Occupations

         #    Occupation            Energy/Eh            Energy/eV
      -------------------------------------------------------------
         1        2.0000           -0.8912849             -24.2531
       ...           ...                  ...                  ...
        25        2.0000           -0.6648358             -18.0911
        26        2.0000           -0.6530851             -17.7713
        27        2.0000           -0.6494655             -17.6729
        28        2.0000           -0.6464212             -17.5900
        29        2.0000           -0.6396163             -17.4048
        30        1.9998           -0.6270184             -17.0620
        31        1.9994           -0.6174544             -16.8018
        32        1.9900           -0.5957003             -16.2098
        33        1.9567           -0.5839526             -15.8902
        34        1.9489           -0.5826170             -15.8538
        35        1.8737           -0.5751413             -15.6504
        36        1.7984           -0.5711136             -15.5408
        37        1.2274           -0.5574517             -15.1690 (HOMO)
        38        1.2058           -0.5570931             -15.1593 (LUMO)
        39        0.0000           -0.4577574             -12.4562
        40                         -0.4028296             -10.9616
        41                         -0.3930047             -10.6942
        42                         -0.3077347              -8.3739
        43                         -0.2231851              -6.0732
        44                         -0.1674189              -4.5557
        45                         -0.1341196              -3.6496
        46                         -0.0982418              -2.6733
        47                         -0.0850215              -2.3136
        48                         -0.0455959              -1.2407
       ...                                ...                  ...
        67                          0.5211350              14.1808
      -------------------------------------------------------------
                  HL-Gap            0.0003586 Eh            0.0098 eV

     #   Z          covCN         q      C6AA      α(0)
     1   6 C        3.707    -0.098    22.528     6.784
     2   7 N        2.730     0.173    18.354     6.363
     3   6 C        1.889    -0.012    31.448     9.057
     4   7 N        1.790    -0.272    27.897     7.823
     5   6 C        2.821     0.172    24.296     8.077
     6   6 C        2.944     0.001    28.002     8.679
     7   6 C        2.768     0.267    22.490     7.767
     8   8 O        0.859    -0.367    21.025     6.148
     9   7 N        2.743    -0.062    22.439     7.035
    10   6 C        3.707    -0.063    21.855     6.682
    11   6 C        2.717     0.322    21.530     7.596
    12   8 O        0.860    -0.340    20.511     6.072
    13   7 N        2.744    -0.070    22.594     7.060
    14   6 C        3.702    -0.065    21.909     6.693
    15   1 H        0.924     0.118     1.632     1.998
    16   1 H        0.925     0.113     1.667     2.019
    17   1 H        0.924     0.149     1.398     1.849
    18   1 H        0.925     0.163     1.309     1.789
    19   1 H        0.925     0.120     1.612     1.986
    20   1 H        0.924     0.116     1.647     2.007
    21   1 H        0.924     0.119     1.623     1.992
    22   1 H        0.924     0.094     1.843     2.123
    23   1 H        0.924     0.093     1.855     2.130
    24   1 H        0.925     0.123     1.587     1.970
    25   1 H        0.860     0.206     1.074     1.623

Wiberg/Mayer (AO) data.
largest (>0.10) Wiberg bond orders for each atom

     #   Z sym  total        # sym  WBO       # sym  WBO       # sym  WBO
 ---------------------------------------------------------------------------
     1   6 C    3.823 --    16 H    0.968    15 H    0.954    17 H    0.929
                             2 N    0.918
     2   7 N    3.760 --     3 C    1.803     6 C    1.000     1 C    0.918
     3   6 C    2.877 --     2 N    1.803    18 H    0.911
     4   7 N    2.691 --     5 C    1.589    25 H    0.918
     5   6 C    3.967 --     4 N    1.589     6 C    1.176    13 N    1.105
     6   6 C    3.476 --     5 C    1.176     7 C    1.107     2 N    1.000
     7   6 C    3.954 --     8 O    1.633     9 N    1.111     6 C    1.107
     8   8 O    1.929 --     7 C    1.633     9 N    0.136
     9   7 N    3.486 --     7 C    1.111    11 C    1.087    10 C    0.985
                             8 O    0.136    12 O    0.106
    10   6 C    3.877 --     9 N    0.985    19 H    0.963    21 H    0.947
                            20 H    0.933
    11   6 C    3.957 --    12 O    1.687    13 N    1.099     9 N    1.087
    12   8 O    2.008 --    11 C    1.687    13 N    0.121     9 N    0.106
    13   7 N    3.476 --     5 C    1.105    11 C    1.099    14 C    0.978
                            12 O    0.121
    14   6 C    3.906 --    13 N    0.978    24 H    0.962    23 H    0.961
                            22 H    0.957
    15   1 H    0.980 --     1 C    0.954
    16   1 H    0.983 --     1 C    0.968
    17   1 H    0.973 --     1 C    0.929
    18   1 H    0.933 --     3 C    0.911
    19   1 H    0.982 --    10 C    0.963
    20   1 H    0.955 --    10 C    0.933
    21   1 H    0.966 --    10 C    0.947
    22   1 H    0.975 --    14 C    0.957
    23   1 H    0.979 --    14 C    0.961
    24   1 H    0.983 --    14 C    0.962
    25   1 H    0.948 --     4 N    0.918
 ---------------------------------------------------------------------------

molecular dipole:
                 x           y           z       tot (Debye)
 q only:        2.000      -0.653       0.037
   full:        1.997      -0.825       0.067       5.495

           -------------------------------------------------
          | TOTAL ENERGY              -42.040372980677 Eh   |
          | GRADIENT NORM               0.003786593128 Eh/α |
          | HOMO-LUMO GAP               0.009758160235 eV   |
           -------------------------------------------------

 * finished run on 2024/06/05 at 19:57:58.215
