   * xtb version 6.6.1 (8d0f1dd) compiled by 'conda@1efc2f54142f' on 2023-08-01
          program call               : xtb struc.xyz --opt loose --input .xc1 --gfn2

   ID    Z sym.   atoms
    1    6 C      1, 3, 5-7, 10, 11, 14
    2    7 N      2, 4, 9, 13
    3    8 O      8, 12
    4    1 H      15-25
constraining bond 2 18 to    2.6866700 Å, actual value:    2.1303834 Å

          :  Hamiltonian                  GFN2-xTB          :
 * total energy  :   -42.7978248 Eh     change       -0.6633627E-10 Eh
 * total energy  :   -44.8960920 Eh     change       -0.2098267E+01 Eh
 * total energy  :   -48.1889923 Eh     change       -0.3292900E+01 Eh
 * total energy  :   -26.1854090 Eh     change        0.2200358E+02 Eh
 * total energy  :   -49.3449264 Eh     change       -0.2315952E+02 Eh
 * total energy  :   -49.2985081 Eh     change        0.4641831E-01 Eh
 * total energy  :   -49.4299971 Eh     change       -0.1314890E+00 Eh
 * total energy  :   -49.4668143 Eh     change       -0.3681716E-01 Eh
 * total energy  :   -49.4801647 Eh     change       -0.1335042E-01 Eh
 * total energy  :   -49.4921806 Eh     change       -0.1201591E-01 Eh
 * total energy  :   -49.6744912 Eh     change       -0.4972448E-03 Eh
 * total energy  :   -49.6748535 Eh     change       -0.3622782E-03 Eh
 * total energy  :   -49.6750588 Eh     change       -0.2053546E-03 Eh
 * total energy  :   -49.6752697 Eh     change       -0.2109025E-03 Eh
 * total energy  :   -49.6753556 Eh     change       -0.8592341E-04 Eh
 * total energy  :   -49.6754338 Eh     change       -0.7818763E-04 Eh
 * total energy  :   -49.6754863 Eh     change       -0.5246912E-04 Eh
 * total energy  :   -49.6755223 Eh     change       -0.3599506E-04 Eh
 * total energy  :   -49.6755465 Eh     change       -0.2423492E-04 Eh
   *** GEOMETRY OPTIMIZATION CONVERGED AFTER 60 ITERATIONS ***

 final structure:
================
25
 xtb: 6.6.1 (8d0f1dd)
C            3.15757808411011        0.77714009563799        0.46392773725973
N            2.36141121942019        0.06498455188763       -0.59699617165109
C            2.63727705660396       -1.39628085753588       -0.42588627782142
N            1.48302840727767       -1.96034214706359       -0.19249771321840
C            0.40737239551453       -1.06033341210408       -0.15180560442139
C            0.92396760060949        0.18154979035283       -0.35916041780222
C            0.11591664798814        1.38119842068774       -0.34394361372632
O            0.53287904191599        2.50217650156741       -0.48972376409007
N           -1.22262455952245        1.06272772238393       -0.11457234460993
C           -2.17467863234353        2.16662209207018       -0.07566916655465
C           -1.78097757609613       -0.18612607451797        0.06681302806148
O           -2.95040493463980       -0.36177274104841        0.23630549025952
N           -0.88656856220874       -1.29921767789234        0.05354923713826
C           -1.42827972077256       -2.63137280839133        0.24338423492705
H            2.89224303267788        0.42773578082993        1.46001969792723
H            4.21448719559549        0.59075913106649        0.28274205524644
H            2.94375818546909        1.84347792858324        0.38003778553869
H            2.50970142700452        0.23967656411923       -1.03840731133574
H           -1.62891893317552        3.08876701114281       -0.25839575931877
H           -2.93874401584757        2.01901258339523       -0.83745448194438
H           -2.65953667298023        2.20130357131380        0.89918451423528
H           -1.02107778165620       -3.08774425854582        1.14586355607634
H           -1.21979136042800       -3.25704317068112       -0.62474708723850
H           -2.50748632037983       -2.52832822405130        0.35481415221805
H            1.39990028996216       -2.96033183160560       -0.04621015725553

          :  Hamiltonian                  GFN2-xTB          :
         :: total energy             -49.675546528433 Eh    ::
         :: gradient norm              0.003243788103 Eh/a0 ::
         :: HOMO-LUMO gap              2.386217976329 eV    ::
         :: SCC energy               -42.667360066040 Eh    ::
         :: -> dispersion             -0.023015542013 Eh    ::
         :: repulsion energy           1.549963112427 Eh    ::

    * Orbital Energies and Occupations

         #    Occupation            Energy/Eh            Energy/eV
      -------------------------------------------------------------
         1        2.0000           -0.9232281             -25.1223
       ...           ...                  ...                  ...
        25        2.0000           -0.6734201             -18.3247
        26        2.0000           -0.6647984             -18.0901
        27        2.0000           -0.6617839             -18.0081
        28        2.0000           -0.6593786             -17.9426
        29        2.0000           -0.6385442             -17.3757
        30        2.0000           -0.6324073             -17.2087
        31        2.0000           -0.6284916             -17.1021
        32        2.0000           -0.6038565             -16.4318
        33        1.9999           -0.5952948             -16.1988
        34        1.9995           -0.5859109             -15.9434
        35        1.9975           -0.5724487             -15.5771
        36        1.9968           -0.5707208             -15.5301
        37        1.9947           -0.5666810             -15.4202 (HOMO)
        38        0.0116           -0.4789891             -13.0340 (LUMO)
        39        0.0000           -0.4104824             -11.1698
        40        0.0000           -0.3884953             -10.5715
        41                         -0.3044659              -8.2849
        42                         -0.2469409              -6.7196
        43                         -0.2094141              -5.6984
        44                         -0.2060396              -5.6066
        45                         -0.1751849              -4.7670
        46                         -0.1629466              -4.4340
        47                         -0.1216462              -3.3102
        48                         -0.0480806              -1.3083
       ...                                ...                  ...
        67                          3.6625548              99.6632
      -------------------------------------------------------------
                  HL-Gap            0.0876919 Eh            2.3862 eV

     #   Z          covCN         q      C6AA      α(0)
     1   6 C        3.713    -0.087    22.294     6.747
     2   7 N        3.626     0.051    20.352     6.700
     3   6 C        1.950    -0.090    33.538     9.352
     4   7 N        2.766    -0.018    21.604     6.903
     5   6 C        2.939     0.122    25.317     8.252
     6   6 C        3.014    -0.051    29.249     8.871
     7   6 C        2.765     0.271    22.419     7.754
     8   8 O        0.858    -0.374    21.159     6.167
     9   7 N        2.748    -0.087    22.933     7.112
    10   6 C        3.710    -0.062    21.830     6.677
    11   6 C        2.728     0.318    21.593     7.607
    12   8 O        0.859    -0.349    20.691     6.099
    13   7 N        2.740    -0.058    22.364     7.024
    14   6 C        3.695    -0.071    22.035     6.715
    15   1 H        0.925     0.106     1.730     2.057
    16   1 H        0.925     0.129     1.540     1.941
    17   1 H        0.924     0.132     1.517     1.926
    18   1 H        0.895     0.269     0.810     1.409
    19   1 H        0.925     0.113     1.669     2.020
    20   1 H        0.925     0.099     1.790     2.092
    21   1 H        0.925     0.098     1.803     2.100
    22   1 H        0.924     0.086     1.921     2.168
    23   1 H        0.924     0.086     1.923     2.168
    24   1 H        0.925     0.129     1.542     1.942
    25   1 H        0.860     0.236     0.940     1.519

Wiberg/Mayer (AO) data.
largest (>0.10) Wiberg bond orders for each atom

     #   Z sym  total        # sym  WBO       # sym  WBO       # sym  WBO
 ---------------------------------------------------------------------------
     1   6 C    3.877 --    15 H    0.982    16 H    0.970    17 H    0.965
                             2 N    0.886
     2   7 N    3.741 --     6 C    0.949     3 C    0.949     1 C    0.886
                            18 H    0.883
     3   6 C    2.776 --     4 N    1.598     2 N    0.949
     4   7 N    3.672 --     3 C    1.598     5 C    1.063    25 H    0.911
     5   6 C    3.968 --     6 C    1.473    13 N    1.259     4 N    1.063
     6   6 C    3.897 --     5 C    1.473     7 C    1.079     2 N    0.949
     7   6 C    3.966 --     8 O    1.698     9 N    1.096     6 C    1.079
     8   8 O    2.061 --     7 C    1.698     9 N    0.155
     9   7 N    3.576 --    11 C    1.134     7 C    1.096    10 C    0.966
                             8 O    0.155    12 O    0.147
    10   6 C    3.916 --    19 H    0.970     9 N    0.966    21 H    0.965
                            20 H    0.965
    11   6 C    3.960 --    12 O    1.731     9 N    1.134    13 N    1.002
    12   8 O    2.098 --    11 C    1.731     9 N    0.147    13 N    0.120
    13   7 N    3.586 --     5 C    1.259    11 C    1.002    14 C    0.973
                            12 O    0.120
    14   6 C    3.922 --    13 N    0.973    23 H    0.970    22 H    0.969
                            24 H    0.963
    15   1 H    0.989 --     1 C    0.982
    16   1 H    0.982 --     1 C    0.970
    17   1 H    0.982 --     1 C    0.965
    18   1 H    0.927 --     2 N    0.883
    19   1 H    0.987 --    10 C    0.970
    20   1 H    0.988 --    10 C    0.965
    21   1 H    0.988 --    10 C    0.965
    22   1 H    0.990 --    14 C    0.969
    23   1 H    0.990 --    14 C    0.970
    24   1 H    0.983 --    14 C    0.963
    25   1 H    0.944 --     4 N    0.911
 ---------------------------------------------------------------------------

molecular dipole:
                 x           y           z       tot (Debye)
 q only:        2.395      -1.647       0.022
   full:        2.153      -1.832      -0.092       7.190

           -------------------------------------------------
          | TOTAL ENERGY              -49.675546528433 Eh   |
          | GRADIENT NORM               0.003243788103 Eh/α |
          | HOMO-LUMO GAP               2.386217976329 eV   |
           -------------------------------------------------

 * finished run on 2024/06/05 at 19:58:10.565
