   * xtb version 6.6.1 (8d0f1dd) compiled by 'conda@1efc2f54142f' on 2023-08-01
          program call               : xtb xtbopt.xyz --opt crude --input .xc2 --gfn2

   ID    Z sym.   atoms
    1    6 C      1, 3, 5-7, 10, 11, 14
    2    7 N      2, 4, 9, 13
    3    8 O      8, 12
    4    1 H      15-25
########################################################################
[WARNING] Please study the warnings concerning your input carefully
-1- readin_getIntValue: could not parse ''
########################################################################

          :  Hamiltonian                  GFN2-xTB          :
 * total energy  :   -41.1172270 Eh     change        0.1634248E-12 Eh
 * total energy  :   -42.1127720 Eh     change       -0.9955451E+00 Eh
 * total energy  :   -42.1271385 Eh     change       -0.1436651E-01 Eh
 * total energy  :   -42.1308059 Eh     change       -0.3667424E-02 Eh
 * total energy  :   -42.1312456 Eh     change       -0.4396388E-03 Eh
 * total energy  :   -42.1314310 Eh     change       -0.1854086E-03 Eh
 * total energy  :   -42.1315194 Eh     change       -0.8844656E-04 Eh
   *** GEOMETRY OPTIMIZATION CONVERGED AFTER 7 ITERATIONS ***

 final structure:
================
25
 xtb: 6.6.1 (8d0f1dd)
C            3.16554224675698        0.79257880253906        0.50141175135751
N            2.35312215832346        0.02966873915266       -0.48456249280175
C            2.62832045285274       -1.42059379693327       -0.40213093112783
N            1.46533630348319       -1.98166871004417       -0.19517348417499
C            0.39819288930964       -1.07363328624282       -0.13540161063799
C            0.92303579199024        0.16971829341703       -0.31159317519389
C            0.11785954822786        1.36965582146217       -0.30818685436820
O            0.53926752093156        2.49022582161092       -0.45183916159878
N           -1.22511405701410        1.05431066403824       -0.11001609689630
C           -2.17492495334550        2.16092898050704       -0.08665399268776
C           -1.78847787903586       -0.19297564227208        0.07546223153078
O           -2.95947520906380       -0.36099640674850        0.24425159748807
N           -0.90019322733126       -1.30812264383847        0.05731927354005
C           -1.44809803473800       -2.63716868887492        0.25215056817531
H            2.91547745993680        0.46215197243161        1.50664420755666
H            4.22188093983286        0.61168554850382        0.31377830542701
H            2.93727101616145        1.85311299860856        0.39905821683552
H            2.65938141922837        0.37838598822334       -1.41350417893268
H           -1.62522675686074        3.07984528819478       -0.27361144537938
H           -2.93422209671532        2.00917702632915       -0.85249779963205
H           -2.66642997552786        2.20527133684443        0.88431574343484
H           -1.04077665205074       -3.09284401245174        1.15497670697224
H           -1.24637201100164       -3.26754744371943       -0.61408079803468
H           -2.52643627345426       -2.52831888175646        0.36692657988934
H            1.37149089320259       -2.98460922737995       -0.08587154284141

          :  Hamiltonian                  GFN2-xTB          :
         :: total energy             -42.131519442117 Eh    ::
         :: gradient norm              0.009432740332 Eh/a0 ::
         :: HOMO-LUMO gap              2.429749101801 eV    ::
         :: SCC energy               -42.636830913920 Eh    ::
         :: -> dispersion             -0.022956972973 Eh    ::
         :: repulsion energy           0.505140557567 Eh    ::

    * Orbital Energies and Occupations

         #    Occupation            Energy/Eh            Energy/eV
      -------------------------------------------------------------
         1        2.0000           -0.9144318             -24.8830
       ...           ...                  ...                  ...
        25        2.0000           -0.6708734             -18.2554
        26        2.0000           -0.6622205             -18.0199
        27        2.0000           -0.6548571             -17.8196
        28        2.0000           -0.6531121             -17.7721
        29        2.0000           -0.6360224             -17.3071
        30        2.0000           -0.6303336             -17.1523
        31        2.0000           -0.6257426             -17.0273
        32        2.0000           -0.6020408             -16.3824
        33        1.9998           -0.5910802             -16.0841
        34        1.9995           -0.5829459             -15.8628
        35        1.9974           -0.5690694             -15.4852
        36        1.9970           -0.5679420             -15.4545
        37        1.9954           -0.5645220             -15.3614 (HOMO)
        38        0.0109           -0.4752304             -12.9317 (LUMO)
        39        0.0000           -0.4070014             -11.0751
        40        0.0000           -0.3857020             -10.4955
        41                         -0.3008945              -8.1878
        42                         -0.2497640              -6.7964
        43                         -0.2070200              -5.6333
        44                         -0.1861788              -5.0662
        45                         -0.1519836              -4.1357
        46                         -0.1491631              -4.0589
        47                         -0.1142774              -3.1096
        48                         -0.1033388              -2.8120
       ...                                ...                  ...
        67                          0.5564484              15.1417
      -------------------------------------------------------------
                  HL-Gap            0.0892916 Eh            2.4297 eV

     #   Z          covCN         q      C6AA      α(0)
     1   6 C        3.694    -0.085    22.306     6.757
     2   7 N        3.645     0.079    19.869     6.620
     3   6 C        1.935    -0.085    33.422     9.336
     4   7 N        2.775    -0.018    21.604     6.903
     5   6 C        2.948     0.123    25.304     8.250
     6   6 C        2.999    -0.047    29.155     8.857
     7   6 C        2.765     0.270    22.432     7.756
     8   8 O        0.858    -0.378    21.251     6.181
     9   7 N        2.748    -0.087    22.942     7.114
    10   6 C        3.710    -0.061    21.820     6.676
    11   6 C        2.728     0.318    21.592     7.607
    12   8 O        0.859    -0.351    20.732     6.105
    13   7 N        2.740    -0.059    22.376     7.026
    14   6 C        3.695    -0.070    22.024     6.714
    15   1 H        0.925     0.105     1.738     2.062
    16   1 H        0.925     0.123     1.590     1.972
    17   1 H        0.925     0.127     1.555     1.950
    18   1 H        0.858     0.256     0.859     1.452
    19   1 H        0.925     0.112     1.676     2.024
    20   1 H        0.925     0.098     1.801     2.098
    21   1 H        0.925     0.098     1.807     2.102
    22   1 H        0.924     0.085     1.928     2.171
    23   1 H        0.925     0.085     1.933     2.174
    24   1 H        0.925     0.128     1.547     1.945
    25   1 H        0.860     0.234     0.948     1.525

Wiberg/Mayer (AO) data.
largest (>0.10) Wiberg bond orders for each atom

     #   Z sym  total        # sym  WBO       # sym  WBO       # sym  WBO
 ---------------------------------------------------------------------------
     1   6 C    3.888 --    15 H    0.979    16 H    0.972    17 H    0.968
                             2 N    0.915
     2   7 N    3.783 --     6 C    0.964     3 C    0.962     1 C    0.915
                            18 H    0.876
     3   6 C    2.778 --     4 N    1.591     2 N    0.962
     4   7 N    3.671 --     3 C    1.591     5 C    1.065    25 H    0.913
     5   6 C    3.968 --     6 C    1.473    13 N    1.255     4 N    1.065
     6   6 C    3.902 --     5 C    1.473     7 C    1.079     2 N    0.964
     7   6 C    3.966 --     8 O    1.694     9 N    1.099     6 C    1.079
     8   8 O    2.056 --     7 C    1.694     9 N    0.155
     9   7 N    3.576 --    11 C    1.132     7 C    1.099    10 C    0.966
                             8 O    0.155    12 O    0.147
    10   6 C    3.917 --    19 H    0.970    20 H    0.966     9 N    0.966
                            21 H    0.965
    11   6 C    3.960 --    12 O    1.729     9 N    1.132    13 N    1.007
    12   8 O    2.096 --    11 C    1.729     9 N    0.147    13 N    0.120
    13   7 N    3.584 --     5 C    1.255    11 C    1.007    14 C    0.973
                            12 O    0.120
    14   6 C    3.923 --    13 N    0.973    23 H    0.970    22 H    0.970
                            24 H    0.963
    15   1 H    0.989 --     1 C    0.979
    16   1 H    0.984 --     1 C    0.972
    17   1 H    0.984 --     1 C    0.968
    18   1 H    0.932 --     2 N    0.876
    19   1 H    0.987 --    10 C    0.970
    20   1 H    0.988 --    10 C    0.966
    21   1 H    0.988 --    10 C    0.965
    22   1 H    0.990 --    14 C    0.970
    23   1 H    0.990 --    14 C    0.970
    24   1 H    0.983 --    14 C    0.963
    25   1 H    0.945 --     4 N    0.913
 ---------------------------------------------------------------------------

molecular dipole:
                 x           y           z       tot (Debye)
 q only:        2.490      -1.631      -0.179
   full:        2.263      -1.784      -0.306       7.365

           -------------------------------------------------
          | TOTAL ENERGY              -42.131519442117 Eh   |
          | GRADIENT NORM               0.009432740332 Eh/α |
          | HOMO-LUMO GAP               2.429749101801 eV   |
           -------------------------------------------------

 * finished run on 2024/06/05 at 19:58:11.017
