   * xtb version 6.6.1 (8d0f1dd) compiled by 'conda@1efc2f54142f' on 2023-08-01
          program call               : xtb struc.xyz --opt loose --input .xc1 --gfn2

   ID    Z sym.   atoms
    1    7 N      1, 17
    2    6 C      2-6, 8, 9, 11-16, 18-23, 25, 26, 28-33
    3    8 O      7, 10, 24, 27
    4    1 H      34-72
constraining bond 43 46 to    4.2800000 Å, actual value:    2.4041780 Å

          :  Hamiltonian                  GFN2-xTB          :
 * total energy  :   -98.7758543 Eh     change       -0.4035485E-08 Eh
 * total energy  :   -99.0540282 Eh     change       -0.2781740E+00 Eh
 * total energy  :   -99.2103475 Eh     change       -0.1563193E+00 Eh
 * total energy  :   -99.2570296 Eh     change       -0.4668209E-01 Eh
 * total energy  :   -99.2637777 Eh     change       -0.6748064E-02 Eh
 * total energy  :   -99.2649837 Eh     change       -0.1206052E-02 Eh
 * total energy  :   -99.2669802 Eh     change       -0.1996470E-02 Eh
 * total energy  :   -99.2674528 Eh     change       -0.4725599E-03 Eh
 * total energy  :   -99.2677822 Eh     change       -0.3294379E-03 Eh
 * total energy  :   -99.2681155 Eh     change       -0.3333362E-03 Eh
 * total energy  :   -99.2684194 Eh     change       -0.3038767E-03 Eh
 * total energy  :   -99.2686982 Eh     change       -0.2788110E-03 Eh
 * total energy  :   -99.2688965 Eh     change       -0.1982420E-03 Eh
 * total energy  :   -99.2690527 Eh     change       -0.1562671E-03 Eh
 * total energy  :   -99.2691500 Eh     change       -0.9726827E-04 Eh
 * total energy  :   -99.2692399 Eh     change       -0.8989209E-04 Eh
 * total energy  :   -99.2693078 Eh     change       -0.6791470E-04 Eh
 * total energy  :   -99.2693586 Eh     change       -0.5081483E-04 Eh
 * total energy  :   -99.2694003 Eh     change       -0.4165144E-04 Eh
   *** GEOMETRY OPTIMIZATION CONVERGED AFTER 19 ITERATIONS ***

 final structure:
================
72
 xtb: 6.6.1 (8d0f1dd)
N           -1.80027043199635        2.80622564848003        2.13373427242125
C           -1.79435804228406        2.11406647821450        1.09450038030781
C           -2.95594071350952        1.92546367946469        0.16499536035309
C           -3.44683285997010        0.48579118638192        0.25044483806560
C           -4.41133171880721        0.01975412648614       -0.64794615381987
C           -4.89774560462191       -1.27539150726558       -0.57410941027224
O           -5.83054800420509       -1.81079035816866       -1.38724786786738
C           -6.48165930954048       -0.99297882766211       -2.33077901272718
C           -4.39720022844281       -2.15697769510628        0.42300054989249
O           -4.91342443136525       -3.40191970198783        0.40929479515545
C           -4.50839886427126       -4.31820732031775        1.39942829824856
C           -3.44400479908405       -1.68630039681332        1.31069073429191
C           -2.98207301332433       -0.37863330125036        1.22883787517438
C           -2.49236778330192        2.28001749731093       -1.29864081694112
C           -1.51306558921083        0.96324192813927       -1.79271333424413
C           -0.27026574626537        1.07585309419570       -1.01669383225384
N            0.45316331115960        0.02458641946566       -0.62677383534310
C            1.83153336257731        0.17313289093328       -0.22163146720687
C            2.79813441656389       -0.29276686306700       -1.32622149401701
C            4.22311069582114       -0.10057940297694       -0.88888857087721
C            4.87140223111241        1.10293127194217       -1.11289986130633
C            6.17884404428549        1.29417023379830       -0.69422146082090
C            6.86387922284961        0.28265117244978       -0.03672000154770
O            8.12920604217417        0.35543653371540        0.41537184712665
C            8.86353549944242        1.54091189778243        0.21398566016576
C            6.20733264757493       -0.95753600391047        0.19681317865383
O            6.95094995802036       -1.88441201983949        0.83275158523291
C            6.40755259204140       -3.15913347797893        1.07848559615312
C            4.89887789355171       -1.12433507407366       -0.22874629721939
C           -0.08354671935687       -1.31122594409702       -0.67876096953655
C           -4.16236057336651        2.84107008744211        0.55603168336670
C           -4.72880969279412        2.46765911714299        1.92471646551538
C           -3.82252938206903        4.33003479846187        0.53720854006640
H           -4.77870316442568        0.68009204769755       -1.41617218165624
H           -6.98619009984353       -0.15064520100353       -1.84828612393677
H           -7.22308642049376       -1.63246788993871       -2.80618447884767
H           -5.78727850998792       -0.62010766928023       -3.09035742365530
H           -4.74194035132733       -3.95198856547713        2.40350883831739
H           -5.07378453945734       -5.22756796057696        1.20641493888975
H           -3.43778422474041       -4.53623376801629        1.32936275897025
H           -3.05720867100040       -2.32683295944905        2.08628720942565
H           -2.26555004758659       -0.03822442153319        1.96005376845726
H           -3.51005466841747        2.84303516004143       -1.60607777578920
H           -1.78289827079161        3.10962501564192       -1.24373793343806
H           -2.10651867546966        0.09100823997946       -1.54116840571823
H           -0.76776017206902        0.32891295097144       -2.88087521670228
H           -0.89750967475780        1.58558025079288        0.71459260866064
H            0.25713717451038        2.02067131507689       -1.04636197209643
H            2.00196947571997       -0.41339977842764        0.68579913417485
H            2.02877465366853        1.22223927414925        0.00750696883497
H            2.60627489426051        0.29051402723334       -2.22872464518405
H            2.61496241138133       -1.34464629962425       -1.54850937953284
H            4.36308687042435        1.90168068101007       -1.63138417398205
H            6.65953169475757        2.23814548670027       -0.89130983432516
H            8.39341964002386        2.39307908871798        0.71424165349166
H            8.98260553539864        1.76166723695147       -0.85093867797201
H            9.84082045854369        1.35742776950503        0.65610740854687
H            7.19493779438604       -3.72008886985201        1.57831420049358
H            5.53253446014304       -3.10380944827349        1.73401912052348
H            6.13739711576234       -3.66675707842477        0.14729210891845
H            4.39487095093247       -2.06385122026879       -0.06321322469077
H           -0.18530325852335       -1.65473800196166       -1.71240277215858
H           -1.06791582091067       -1.34614120993672       -0.20600210031923
H            0.58316742708808       -1.98689207008392       -0.14917410214781
H           -4.95245342242769        2.65589323307985       -0.18236284311198
H           -3.98935625817524        2.65007216530432        2.69705767634630
H           -5.02458176923434        1.42229576198032        1.95695953268712
H           -5.60388051564066        3.07746960092116        2.13196106600302
H           -3.05545072868721        4.54697262875388        1.27374955536376
H           -3.48048356618283        4.67018607986530       -0.43757867475161
H           -4.71139778498026        4.89986414520013        0.79522958994292
H           -0.93867275425733        2.87028960776251        2.66633137037795

          :  Hamiltonian                  GFN2-xTB          :
         :: total energy             -99.269400265285 Eh    ::
         :: gradient norm              0.003144693703 Eh/a0 ::
         :: HOMO-LUMO gap              1.738491307927 eV    ::
         :: SCC energy              -100.634146991034 Eh    ::
         :: -> dispersion             -0.076726222699 Eh    ::
         :: repulsion energy           1.341918638813 Eh    ::

    * Orbital Energies and Occupations

         #    Occupation            Energy/Eh            Energy/eV
      -------------------------------------------------------------
         1        2.0000           -0.8092319             -22.0203
       ...           ...                  ...                  ...
        78        1.9986           -0.5311846             -14.4543
        79        1.9985           -0.5297851             -14.4162
        80        1.9982           -0.5269603             -14.3393
        81        1.9978           -0.5240475             -14.2601
        82        1.9971           -0.5194909             -14.1361
        83        1.9970           -0.5191699             -14.1273
        84        1.9965           -0.5163993             -14.0519
        85        1.9957           -0.5131770             -13.9643
        86        1.9830           -0.4914584             -13.3733
        87        1.9787           -0.4878959             -13.2763
        88        1.9526           -0.4749826             -12.9249
        89        1.8828           -0.4600866             -12.5196
        90        1.8443           -0.4552507             -12.3880 (HOMO)
        91        0.3464           -0.3913623             -10.6495 (LUMO)
        92        0.0229           -0.3455220              -9.4021
        93        0.0060           -0.3242582              -8.8235
        94        0.0041           -0.3180119              -8.6535
        95        0.0033           -0.3149226              -8.5695
        96        0.0028           -0.3118065              -8.4847
        97        0.0024           -0.3094724              -8.4212
        98        0.0000           -0.2002809              -5.4499
        99        0.0000           -0.1925004              -5.2382
       100        0.0000           -0.1862292              -5.0676
       101                         -0.1249424              -3.3999
       ...                                ...                  ...
       171                          0.5775301              15.7154
      -------------------------------------------------------------
                  HL-Gap            0.0638884 Eh            1.7385 eV

     #   Z          covCN         q      C6AA      α(0)
     1   7 N        1.773    -0.265    27.712     7.795
     2   6 C        2.822     0.095    25.885     8.337
     3   6 C        3.902     0.003    20.475     6.432
     4   6 C        2.974     0.001    27.995     8.679
     5   6 C        2.919    -0.080    30.001     8.982
     6   6 C        2.862     0.130    25.155     8.221
     7   8 O        1.706    -0.230    17.807     5.697
     8   6 C        3.644     0.027    20.461     6.502
     9   6 C        2.865     0.128    25.185     8.226
    10   8 O        1.706    -0.228    17.786     5.694
    11   6 C        3.646     0.027    20.454     6.499
    12   6 C        2.913    -0.076    29.886     8.964
    13   6 C        2.921    -0.056    29.387     8.890
    14   6 C        3.705    -0.068    21.952     6.698
    15   6 C        3.188    -0.041    28.509     8.711
    16   6 C        2.842     0.014    27.685     8.623
    17   7 N        2.730    -0.010    21.460     6.880
    18   6 C        3.753    -0.014    20.877     6.516
    19   6 C        3.808    -0.070    21.833     6.652
    20   6 C        2.969    -0.001    28.038     8.685
    21   6 C        2.922    -0.049    29.210     8.863
    22   6 C        2.914    -0.068    29.681     8.934
    23   6 C        2.865     0.133    25.081     8.209
    24   8 O        1.706    -0.222    17.682     5.677
    25   6 C        3.646     0.025    20.487     6.505
    26   6 C        2.862     0.133    25.089     8.210
    27   8 O        1.706    -0.225    17.729     5.685
    28   6 C        3.644     0.027    20.452     6.500
    29   6 C        2.919    -0.079    29.985     8.980
    30   6 C        3.701    -0.067    21.954     6.700
    31   6 C        3.853    -0.007    20.675     6.467
    32   6 C        3.756    -0.120    22.854     6.816
    33   6 C        3.755    -0.119    22.833     6.813
    34   1 H        0.926     0.055     2.263     2.352
    35   1 H        0.924     0.054     2.276     2.360
    36   1 H        0.925     0.082     1.963     2.191
    37   1 H        0.924     0.049     2.331     2.387
    38   1 H        0.924     0.055     2.260     2.351
    39   1 H        0.925     0.081     1.964     2.192
    40   1 H        0.924     0.047     2.352     2.398
    41   1 H        0.926     0.052     2.296     2.370
    42   1 H        0.926     0.037     2.489     2.467
    43   1 H        0.885     0.086     1.920     2.169
    44   1 H        0.924     0.051     2.305     2.374
    45   1 H        0.925     0.075     2.031     2.228
    46   1 H        0.365     0.038     5.281     4.125
    47   1 H        0.922     0.017     2.782     2.608
    48   1 H        0.925     0.074     2.046     2.237
    49   1 H        0.924     0.065     2.141     2.288
    50   1 H        0.924     0.065     2.142     2.289
    51   1 H        0.924     0.053     2.277     2.360
    52   1 H        0.924     0.055     2.261     2.351
    53   1 H        0.926     0.045     2.385     2.415
    54   1 H        0.926     0.058     2.218     2.329
    55   1 H        0.924     0.054     2.270     2.356
    56   1 H        0.924     0.056     2.248     2.345
    57   1 H        0.925     0.082     1.956     2.187
    58   1 H        0.925     0.082     1.961     2.190
    59   1 H        0.924     0.048     2.340     2.392
    60   1 H        0.924     0.052     2.291     2.367
    61   1 H        0.926     0.047     2.362     2.403
    62   1 H        0.924     0.072     2.062     2.246
    63   1 H        0.924     0.076     2.019     2.222
    64   1 H        0.925     0.080     1.983     2.202
    65   1 H        0.924     0.037     2.486     2.466
    66   1 H        0.925     0.069     2.097     2.264
    67   1 H        0.925     0.036     2.497     2.471
    68   1 H        0.925     0.053     2.289     2.366
    69   1 H        0.925     0.062     2.173     2.305
    70   1 H        0.925     0.034     2.530     2.487
    71   1 H        0.925     0.055     2.258     2.350
    72   1 H        0.860     0.159     1.340     1.814

Wiberg/Mayer (AO) data.
largest (>0.10) Wiberg bond orders for each atom

     #   Z sym  total        # sym  WBO       # sym  WBO       # sym  WBO
 ---------------------------------------------------------------------------
     1   7 N    3.053 --     2 C    1.949    72 H    0.940
     2   6 C    3.913 --     1 N    1.949     3 C    0.999    47 H    0.865
     3   6 C    3.977 --     2 C    0.999     4 C    0.967    14 C    0.950
                            31 C    0.939
     4   6 C    3.951 --    13 C    1.414     5 C    1.362     3 C    0.967
     5   6 C    3.963 --     6 C    1.403     4 C    1.362    34 H    0.959
     6   6 C    3.909 --     5 C    1.403     9 C    1.221     7 O    1.101
     7   8 O    2.258 --     6 C    1.101     8 C    0.977
     8   6 C    3.931 --     7 O    0.977    36 H    0.977    35 H    0.974
                            37 H    0.973
     9   6 C    3.905 --    12 C    1.394     6 C    1.221    10 O    1.102
    10   8 O    2.255 --     9 C    1.102    11 C    0.978
    11   6 C    3.932 --    10 O    0.978    39 H    0.977    40 H    0.974
                            38 H    0.973
    12   6 C    3.964 --    13 C    1.400     9 C    1.394    41 H    0.964
    13   6 C    3.957 --     4 C    1.414    12 C    1.400    42 H    0.962
    14   6 C    3.953 --    44 H    0.978    15 C    0.959     3 C    0.950
                            43 H    0.947
    15   6 C    3.940 --    16 C    1.113    14 C    0.959    45 H    0.949
                            46 H    0.814
    16   6 C    3.666 --    17 N    1.363    15 C    1.113    48 H    0.953
    17   7 N    3.483 --    16 C    1.363    30 C    1.003    18 C    0.987
    18   6 C    3.956 --    17 N    0.987    19 C    0.969    50 H    0.968
                            49 H    0.965
    19   6 C    3.979 --    20 C    1.008    51 H    0.972    52 H    0.971
                            18 C    0.969
    20   6 C    3.944 --    21 C    1.410    29 C    1.380    19 C    1.008
    21   6 C    3.950 --    22 C    1.417    20 C    1.410    53 H    0.968
    22   6 C    3.960 --    21 C    1.417    23 C    1.384    54 H    0.963
    23   6 C    3.895 --    22 C    1.384    26 C    1.219    24 O    1.110
    24   8 O    2.255 --    23 C    1.110    25 C    0.976
    25   6 C    3.928 --    57 H    0.977    24 O    0.976    55 H    0.973
                            56 H    0.973
    26   6 C    3.899 --    29 C    1.395    23 C    1.219    27 O    1.104
    27   8 O    2.255 --    26 C    1.104    28 C    0.979
    28   6 C    3.932 --    27 O    0.979    58 H    0.977    59 H    0.973
                            60 H    0.973
    29   6 C    3.959 --    26 C    1.395    20 C    1.380    61 H    0.963
    30   6 C    3.959 --    17 N    1.003    64 H    0.977    62 H    0.961
                            63 H    0.960
    31   6 C    3.975 --    33 C    1.009    32 C    1.007    65 H    0.956
                             3 C    0.939
    32   6 C    3.980 --    31 C    1.007    67 H    0.982    68 H    0.981
                            66 H    0.974
    33   6 C    3.984 --    31 C    1.009    71 H    0.980    70 H    0.980
                            69 H    0.976
    34   1 H    0.996 --     5 C    0.959
    35   1 H    0.994 --     8 C    0.974
    36   1 H    0.993 --     8 C    0.977
    37   1 H    0.994 --     8 C    0.973
    38   1 H    0.993 --    11 C    0.973
    39   1 H    0.993 --    11 C    0.977
    40   1 H    0.994 --    11 C    0.974
    41   1 H    0.996 --    12 C    0.964
    42   1 H    0.998 --    13 C    0.962
    43   1 H    0.991 --    14 C    0.947
    44   1 H    0.996 --    14 C    0.978
    45   1 H    0.990 --    15 C    0.949
    46   1 H    0.903 --    15 C    0.814
    47   1 H    0.989 --     2 C    0.865
    48   1 H    0.994 --    16 C    0.953
    49   1 H    0.992 --    18 C    0.965
    50   1 H    0.995 --    18 C    0.968
    51   1 H    0.996 --    19 C    0.972
    52   1 H    0.996 --    19 C    0.971
    53   1 H    0.997 --    21 C    0.968
    54   1 H    0.995 --    22 C    0.963
    55   1 H    0.992 --    25 C    0.973
    56   1 H    0.992 --    25 C    0.973
    57   1 H    0.992 --    25 C    0.977
    58   1 H    0.993 --    28 C    0.977
    59   1 H    0.993 --    28 C    0.973
    60   1 H    0.993 --    28 C    0.973
    61   1 H    0.997 --    29 C    0.963
    62   1 H    0.987 --    30 C    0.961
    63   1 H    0.989 --    30 C    0.960
    64   1 H    0.993 --    30 C    0.977
    65   1 H    0.994 --    31 C    0.956
    66   1 H    0.992 --    32 C    0.974
    67   1 H    0.997 --    32 C    0.982
    68   1 H    0.994 --    32 C    0.981
    69   1 H    0.994 --    33 C    0.976
    70   1 H    0.998 --    33 C    0.980
    71   1 H    0.994 --    33 C    0.980
    72   1 H    0.970 --     1 N    0.940
 ---------------------------------------------------------------------------

molecular dipole:
                 x           y           z       tot (Debye)
 q only:        0.441       0.083      -0.681
   full:        0.788      -0.010      -0.807       2.867

           -------------------------------------------------
          | TOTAL ENERGY              -99.269400265285 Eh   |
          | GRADIENT NORM               0.003144693703 Eh/α |
          | HOMO-LUMO GAP               1.738491307927 eV   |
           -------------------------------------------------

 * finished run on 2024/04/06 at 11:15:02.829
