   * xtb version 6.6.1 (8d0f1dd) compiled by 'conda@1efc2f54142f' on 2023-08-01
          program call               : xtb xtbopt.xyz --opt crude --input .xc2 --gfn2

   ID    Z sym.   atoms
    1    7 N      1, 17
    2    6 C      2-6, 8, 9, 11-16, 18-23, 25, 26, 28-33
    3    8 O      7, 10, 24, 27
    4    1 H      34-72

          :  Hamiltonian                  GFN2-xTB          :
 * total energy  :   -99.2909373 Eh     change        0.1421085E-13 Eh
 * total energy  :   -99.3445284 Eh     change       -0.5359112E-01 Eh
 * total energy  :   -99.3882576 Eh     change       -0.4372917E-01 Eh
 * total energy  :   -99.3946750 Eh     change       -0.6417346E-02 Eh
 * total energy  :   -99.4020587 Eh     change       -0.7383731E-02 Eh
 * total energy  :   -99.4037826 Eh     change       -0.1723893E-02 Eh
 * total energy  :   -99.4056039 Eh     change       -0.1821277E-02 Eh
 * total energy  :   -99.4061356 Eh     change       -0.5317764E-03 Eh
 * total energy  :   -99.4064255 Eh     change       -0.2898761E-03 Eh
   *** GEOMETRY OPTIMIZATION CONVERGED AFTER 9 ITERATIONS ***

 final structure:
================
72
 xtb: 6.6.1 (8d0f1dd)
N           -1.82508191860994        2.81415106717356        2.18192097156339
C           -1.82184441718204        2.11155942385500        1.15097149367310
C           -2.99197266560551        1.91111375024069        0.22928333585012
C           -3.47983625006123        0.47264563039638        0.31970912346561
C           -4.43471804210004        0.01088611373722       -0.58827476280702
C           -4.90825351193572       -1.28924714012100       -0.54097439210261
O           -5.83047726287312       -1.81440683826889       -1.37321416960247
C           -6.46172057401173       -0.98292191270565       -2.31882432187883
C           -4.40593541274038       -2.18032461054917        0.44592979681161
O           -4.91492201879027       -3.42819907721107        0.41423737780529
C           -4.52160051618448       -4.34988916492731        1.40379992941005
C           -3.46086853689547       -1.71419993286625        1.34552876202676
C           -3.00721723015698       -0.40218313181270        1.28438274226805
C           -2.44902376617741        2.17738822911096       -1.19645646977096
C           -1.50532792506968        1.07582907759121       -1.72122100866936
C           -0.17514286411285        1.07526332785291       -1.07309921910308
N            0.49387680045802       -0.00281150637175       -0.67699747534765
C            1.87041382960416        0.11363293264663       -0.25591440675321
C            2.84384908241326       -0.32850794146708       -1.36476382905206
C            4.26171212321182       -0.12160563923918       -0.91297099652490
C            4.90019448383331        1.08964696275114       -1.12248987644337
C            6.20107561207047        1.28983210618705       -0.68744678488604
C            6.88865267288729        0.28087643393129       -0.02816257409891
O            8.15215405181710        0.36142609192253        0.42800616935403
C            8.88232411678333        1.54871489401526        0.22069504084071
C            6.23754874741432       -0.96308043595165        0.20034823236402
O            6.97412460689470       -1.88832167618520        0.84680408004640
C            6.42181506057685       -3.16090567482485        1.08547878270443
C            4.93596628731582       -1.13876319123722       -0.24208783398252
C           -0.08114017400933       -1.32616106267029       -0.69793707730669
C           -4.18676281039077        2.85749565814864        0.54645695298069
C           -4.80022760553991        2.52873859260039        1.90661576945222
C           -3.81489958433643        4.33680320546104        0.49228177287895
H           -4.82346533741149        0.68344639084601       -1.33470014709993
H           -6.96387082206881       -0.13774943655392       -1.83876785258562
H           -7.20339409639997       -1.61060460735404       -2.80913838537100
H           -5.75298275306858       -0.61246481197852       -3.06689502566932
H           -4.76340961154001       -3.98726799307217        2.40725863257907
H           -5.08807150913769       -5.25645007366677        1.20122748485024
H           -3.45098163969101       -4.57068171379653        1.34278149045928
H           -3.07437252876912       -2.36254178933012        2.11487541016254
H           -2.29450972733322       -0.06518459605150        2.02131486480562
H           -3.28747418625111        2.25968033538828       -1.88526934817251
H           -1.91317633779818        3.12781992943606       -1.20216769093131
H           -2.00085928500324        0.10887251178832       -1.63348120186336
H           -1.36583182530240        1.26334284337666       -2.79715946702173
H           -0.92097789256423        1.59212593245466        0.76250021238905
H            0.37726873147113        2.00413710427583       -1.08063864482730
H            2.02844277942160       -0.50022487770759        0.63534644366517
H            2.08247893522537        1.15269096644180        0.00578305569077
H            2.64716007214849        0.26514674365492       -2.25917595614887
H            2.67375307556045       -1.37916892399109       -1.60273287732985
H            4.39029073012760        1.88670171394657       -1.64192708091642
H            6.67502490703902        2.23953830240096       -0.87315304215092
H            8.41141837438535        2.40100973359727        0.71989264944705
H            8.99692928534384        1.76668257897129       -0.84538984044549
H            9.86176476187587        1.36971598026791        0.65975278952892
H            7.20235953786220       -3.72973877293025        1.58661993893830
H            5.54387694956721       -3.10134484704518        1.73696132715968
H            6.15183558879727       -3.66264401650636        0.15101227334398
H            4.43435113181275       -2.08021481353425       -0.08204414416066
H           -0.21109968852669       -1.68621849984335       -1.72102591963889
H           -1.05263720963624       -1.33103096003084       -0.19737022415795
H            0.58142106763459       -2.00967204696074       -0.17248850715149
H           -4.94618520714648        2.67313058832356       -0.22196706986256
H           -4.07524848596072        2.71050400236401        2.69382627081632
H           -5.11781735383259        1.48954306889167        1.95279179986627
H           -5.66767128034178        3.15961347270824        2.08156334537907
H           -3.05353539674892        4.56310421434872        1.23251354942797
H           -3.45766660616015        4.62914556286379       -0.49185042519189
H           -4.69456894151309        4.93418973601890        0.71770696763122
H           -0.95878699756343        2.90272602927633        2.70326405199189

          :  Hamiltonian                  GFN2-xTB          :
         :: total energy             -99.406425513259 Eh    ::
         :: gradient norm              0.006455805373 Eh/a0 ::
         :: HOMO-LUMO gap              1.676059787095 eV    ::
         :: SCC energy              -100.785070465029 Eh    ::
         :: -> dispersion             -0.075145782870 Eh    ::
         :: repulsion energy           1.377408671927 Eh    ::

    * Orbital Energies and Occupations

         #    Occupation            Energy/Eh            Energy/eV
      -------------------------------------------------------------
         1        2.0000           -0.8089627             -22.0130
       ...           ...                  ...                  ...
        78        1.9983           -0.5291602             -14.3992
        79        1.9983           -0.5288389             -14.3904
        80        1.9982           -0.5283254             -14.3765
        81        1.9976           -0.5231486             -14.2356
        82        1.9971           -0.5201977             -14.1553
        83        1.9960           -0.5153752             -14.0241
        84        1.9953           -0.5129000             -13.9567
        85        1.9944           -0.5099531             -13.8765
        86        1.9812           -0.4907329             -13.3535
        87        1.9785           -0.4886076             -13.2957
        88        1.9420           -0.4725559             -12.8589
        89        1.8734           -0.4596362             -12.5073
        90        1.8433           -0.4560023             -12.4085 (HOMO)
        91        0.3877           -0.3944082             -10.7324 (LUMO)
        92        0.0155           -0.3401934              -9.2571
        93        0.0035           -0.3167051              -8.6180
        94        0.0029           -0.3136425              -8.5346
        95        0.0027           -0.3124834              -8.5031
        96        0.0023           -0.3101530              -8.4397
        97        0.0000           -0.1908255              -5.1926
        98        0.0000           -0.1876049              -5.1050
        99                         -0.1370040              -3.7281
       100                         -0.0701112              -1.9078
       101                         -0.0644974              -1.7551
       ...                                ...                  ...
       171                          0.5764500              15.6860
      -------------------------------------------------------------
                  HL-Gap            0.0615941 Eh            1.6761 eV

     #   Z          covCN         q      C6AA      α(0)
     1   7 N        1.773    -0.266    27.735     7.798
     2   6 C        2.827     0.100    25.770     8.318
     3   6 C        3.908     0.007    20.406     6.421
     4   6 C        2.975     0.003    27.962     8.674
     5   6 C        2.920    -0.080    29.992     8.981
     6   6 C        2.862     0.130    25.153     8.221
     7   8 O        1.706    -0.230    17.807     5.697
     8   6 C        3.644     0.027    20.451     6.500
     9   6 C        2.865     0.128    25.183     8.226
    10   8 O        1.706    -0.228    17.789     5.695
    11   6 C        3.646     0.027    20.452     6.499
    12   6 C        2.914    -0.075    29.872     8.962
    13   6 C        2.921    -0.054    29.333     8.882
    14   6 C        3.814    -0.065    21.732     6.635
    15   6 C        3.801    -0.069    21.819     6.650
    16   6 C        2.843     0.009    27.820     8.644
    17   7 N        2.729     0.008    21.113     6.824
    18   6 C        3.757    -0.016    20.915     6.520
    19   6 C        3.808    -0.071    21.843     6.653
    20   6 C        2.969    -0.000    28.032     8.685
    21   6 C        2.922    -0.049    29.211     8.863
    22   6 C        2.914    -0.067    29.679     8.933
    23   6 C        2.865     0.133    25.079     8.209
    24   8 O        1.706    -0.222    17.679     5.677
    25   6 C        3.646     0.025    20.489     6.505
    26   6 C        2.863     0.133    25.086     8.210
    27   8 O        1.706    -0.224    17.723     5.684
    28   6 C        3.645     0.027    20.451     6.499
    29   6 C        2.920    -0.080    29.992     8.981
    30   6 C        3.698    -0.070    22.011     6.710
    31   6 C        3.853    -0.007    20.672     6.467
    32   6 C        3.756    -0.119    22.830     6.813
    33   6 C        3.755    -0.118    22.824     6.812
    34   1 H        0.926     0.052     2.292     2.368
    35   1 H        0.924     0.054     2.272     2.357
    36   1 H        0.925     0.081     1.965     2.192
    37   1 H        0.924     0.048     2.349     2.397
    38   1 H        0.924     0.055     2.259     2.350
    39   1 H        0.925     0.081     1.966     2.193
    40   1 H        0.924     0.048     2.350     2.397
    41   1 H        0.926     0.052     2.300     2.371
    42   1 H        0.926     0.038     2.477     2.461
    43   1 H        0.925     0.061     2.192     2.315
    44   1 H        0.924     0.053     2.280     2.361
    45   1 H        0.925     0.065     2.142     2.289
    46   1 H        0.923     0.078     1.995     2.209
    47   1 H        0.922     0.010     2.885     2.656
    48   1 H        0.926     0.070     2.088     2.260
    49   1 H        0.924     0.067     2.121     2.278
    50   1 H        0.924     0.067     2.123     2.279
    51   1 H        0.924     0.055     2.257     2.350
    52   1 H        0.924     0.056     2.250     2.346
    53   1 H        0.926     0.045     2.381     2.413
    54   1 H        0.926     0.059     2.214     2.327
    55   1 H        0.924     0.054     2.267     2.354
    56   1 H        0.924     0.056     2.247     2.344
    57   1 H        0.925     0.082     1.954     2.186
    58   1 H        0.925     0.082     1.959     2.189
    59   1 H        0.924     0.049     2.338     2.391
    60   1 H        0.924     0.052     2.290     2.366
    61   1 H        0.926     0.047     2.356     2.400
    62   1 H        0.924     0.076     2.019     2.222
    63   1 H        0.924     0.079     1.987     2.205
    64   1 H        0.925     0.079     1.984     2.203
    65   1 H        0.924     0.038     2.481     2.463
    66   1 H        0.925     0.068     2.102     2.267
    67   1 H        0.925     0.036     2.508     2.477
    68   1 H        0.925     0.051     2.302     2.373
    69   1 H        0.925     0.060     2.194     2.316
    70   1 H        0.925     0.034     2.526     2.485
    71   1 H        0.925     0.054     2.265     2.354
    72   1 H        0.860     0.158     1.350     1.820

Wiberg/Mayer (AO) data.
largest (>0.10) Wiberg bond orders for each atom

     #   Z sym  total        # sym  WBO       # sym  WBO       # sym  WBO
 ---------------------------------------------------------------------------
     1   7 N    3.049 --     2 C    1.957    72 H    0.941
     2   6 C    3.923 --     1 N    1.957     3 C    0.995    47 H    0.886
     3   6 C    3.976 --     2 C    0.995     4 C    0.968    14 C    0.958
                            31 C    0.942
     4   6 C    3.950 --    13 C    1.415     5 C    1.368     3 C    0.968
     5   6 C    3.962 --     6 C    1.402     4 C    1.368    34 H    0.957
     6   6 C    3.906 --     5 C    1.402     9 C    1.221     7 O    1.100
     7   8 O    2.255 --     6 C    1.100     8 C    0.978
     8   6 C    3.932 --     7 O    0.978    36 H    0.977    35 H    0.974
                            37 H    0.973
     9   6 C    3.902 --    12 C    1.393     6 C    1.221    10 O    1.101
    10   8 O    2.253 --     9 C    1.101    11 C    0.978
    11   6 C    3.931 --    10 O    0.978    39 H    0.977    40 H    0.974
                            38 H    0.973
    12   6 C    3.963 --    13 C    1.402     9 C    1.393    41 H    0.964
    13   6 C    3.955 --     4 C    1.415    12 C    1.402    42 H    0.963
    14   6 C    3.974 --    15 C    0.981    44 H    0.972    43 H    0.969
                             3 C    0.958
    15   6 C    3.987 --    16 C    1.059    14 C    0.981    45 H    0.961
                            46 H    0.928
    16   6 C    3.604 --    17 N    1.393    15 C    1.059    48 H    0.957
    17   7 N    3.478 --    16 C    1.393    30 C    0.999    18 C    0.988
    18   6 C    3.956 --    17 N    0.988    50 H    0.968    19 C    0.967
                            49 H    0.964
    19   6 C    3.976 --    20 C    1.008    51 H    0.972    52 H    0.972
                            18 C    0.967
    20   6 C    3.944 --    21 C    1.409    29 C    1.380    19 C    1.008
    21   6 C    3.950 --    22 C    1.417    20 C    1.409    53 H    0.968
    22   6 C    3.959 --    21 C    1.417    23 C    1.383    54 H    0.963
    23   6 C    3.895 --    22 C    1.383    26 C    1.220    24 O    1.110
    24   8 O    2.255 --    23 C    1.110    25 C    0.976
    25   6 C    3.928 --    57 H    0.977    24 O    0.976    55 H    0.973
                            56 H    0.973
    26   6 C    3.899 --    29 C    1.395    23 C    1.220    27 O    1.104
    27   8 O    2.254 --    26 C    1.104    28 C    0.979
    28   6 C    3.932 --    27 O    0.979    58 H    0.977    59 H    0.973
                            60 H    0.973
    29   6 C    3.959 --    26 C    1.395    20 C    1.380    61 H    0.962
    30   6 C    3.957 --    17 N    0.999    64 H    0.977    62 H    0.966
                            63 H    0.961
    31   6 C    3.972 --    33 C    1.009    32 C    1.008    65 H    0.960
                             3 C    0.942
    32   6 C    3.979 --    31 C    1.008    67 H    0.982    68 H    0.981
                            66 H    0.974
    33   6 C    3.983 --    31 C    1.009    70 H    0.983    71 H    0.980
                            69 H    0.976
    34   1 H    0.996 --     5 C    0.957
    35   1 H    0.993 --     8 C    0.974
    36   1 H    0.993 --     8 C    0.977
    37   1 H    0.994 --     8 C    0.973
    38   1 H    0.993 --    11 C    0.973
    39   1 H    0.993 --    11 C    0.977
    40   1 H    0.993 --    11 C    0.974
    41   1 H    0.996 --    12 C    0.964
    42   1 H    0.998 --    13 C    0.963
    43   1 H    0.995 --    14 C    0.969
    44   1 H    0.996 --    14 C    0.972
    45   1 H    0.995 --    15 C    0.961
    46   1 H    0.970 --    15 C    0.928
    47   1 H    0.987 --     2 C    0.886
    48   1 H    0.995 --    16 C    0.957
    49   1 H    0.991 --    18 C    0.964
    50   1 H    0.994 --    18 C    0.968
    51   1 H    0.996 --    19 C    0.972
    52   1 H    0.996 --    19 C    0.972
    53   1 H    0.997 --    21 C    0.968
    54   1 H    0.995 --    22 C    0.963
    55   1 H    0.992 --    25 C    0.973
    56   1 H    0.991 --    25 C    0.973
    57   1 H    0.992 --    25 C    0.977
    58   1 H    0.993 --    28 C    0.977
    59   1 H    0.993 --    28 C    0.973
    60   1 H    0.993 --    28 C    0.973
    61   1 H    0.997 --    29 C    0.962
    62   1 H    0.985 --    30 C    0.966
    63   1 H    0.987 --    30 C    0.961
    64   1 H    0.993 --    30 C    0.977
    65   1 H    0.993 --    31 C    0.960
    66   1 H    0.991 --    32 C    0.974
    67   1 H    0.997 --    32 C    0.982
    68   1 H    0.994 --    32 C    0.981
    69   1 H    0.993 --    33 C    0.976
    70   1 H    0.997 --    33 C    0.983
    71   1 H    0.994 --    33 C    0.980
    72   1 H    0.970 --     1 N    0.941
 ---------------------------------------------------------------------------

molecular dipole:
                 x           y           z       tot (Debye)
 q only:        0.660      -0.053      -0.795
   full:        0.942      -0.113      -0.979       3.465

           -------------------------------------------------
          | TOTAL ENERGY              -99.406425513259 Eh   |
          | GRADIENT NORM               0.006455805373 Eh/α |
          | HOMO-LUMO GAP               1.676059787095 eV   |
           -------------------------------------------------

 * finished run on 2024/04/06 at 11:15:04.589
