   * xtb version 6.6.1 (8d0f1dd) compiled by 'conda@1efc2f54142f' on 2023-08-01
          program call               : xtb struc.xyz --opt loose --input .xc1 --gfn2

   ID    Z sym.   atoms
    1    7 N      1, 17
    2    6 C      2-6, 8, 9, 11-16, 18-23, 25, 26, 28-33
    3    8 O      7, 10, 24, 27
    4    1 H      34-72
constraining bond 6 7 to    3.7600000 Å, actual value:    1.3509712 Å

          :  Hamiltonian                  GFN2-xTB          :
 * total energy  :   -98.3679117 Eh     change       -0.4035485E-08 Eh
 * total energy  :   -98.5277832 Eh     change       -0.1598716E+00 Eh
 * total energy  :   -98.7190246 Eh     change       -0.1912414E+00 Eh
 * total energy  :   -98.8971671 Eh     change       -0.1781425E+00 Eh
 * total energy  :   -99.0411510 Eh     change       -0.1439839E+00 Eh
 * total energy  :   -99.0984428 Eh     change       -0.5729183E-01 Eh
 * total energy  :   -99.1286014 Eh     change       -0.3015853E-01 Eh
 * total energy  :   -99.1692110 Eh     change       -0.4060960E-01 Eh
 * total energy  :   -99.2052317 Eh     change       -0.3602069E-01 Eh
 * total energy  :   -99.2262491 Eh     change       -0.2101748E-01 Eh
 * total energy  :   -99.3575149 Eh     change       -0.1243321E-03 Eh
 * total energy  :   -99.3576836 Eh     change       -0.1687486E-03 Eh
 * total energy  :   -99.3578518 Eh     change       -0.1681904E-03 Eh
 * total energy  :   -99.3579545 Eh     change       -0.1026499E-03 Eh
 * total energy  :   -99.3581276 Eh     change       -0.1731038E-03 Eh
 * total energy  :   -99.3582365 Eh     change       -0.1089453E-03 Eh
 * total energy  :   -99.3582798 Eh     change       -0.4327856E-04 Eh
 * total energy  :   -99.3584157 Eh     change       -0.1359058E-03 Eh
 * total energy  :   -99.3584633 Eh     change       -0.4761738E-04 Eh
   *** GEOMETRY OPTIMIZATION CONVERGED AFTER 80 ITERATIONS ***

 final structure:
================
72
 xtb: 6.6.1 (8d0f1dd)
N           -1.87692128370988        3.04421306693160        2.24519401105046
C           -1.80813346490584        2.25681895853467        1.27892937621960
C           -2.93577660300306        1.96119521839556        0.32994820395497
C           -3.33257572615613        0.49960755097259        0.45300302950840
C           -4.15862712271308       -0.09619724201380       -0.50194431326134
C           -4.55380198055525       -1.40930836543435       -0.38474387298214
O           -6.73586644134187       -1.41333475769994       -3.44391157345397
C           -7.76588861086061       -1.19561433564241       -4.01411125013496
C           -4.14418752720292       -2.18344020292903        0.70759946100509
O           -4.59200106377736       -3.45556952005521        0.73919185923062
C           -4.30224635574081       -4.25777782947384        1.86106293988734
C           -3.31961126808735       -1.59835149009247        1.66713664505755
C           -2.92778595323156       -0.27613214208264        1.53303399099517
C           -2.37871906430506        2.25430633938730       -1.08781285570677
C           -1.41571118413615        1.18435983992477       -1.63412129799929
C           -0.10174089191863        1.15439856605687       -0.95668269523711
N            0.52505226321971        0.06252213782858       -0.54137288215739
C            1.90903823359642        0.12617847993490       -0.13286018261732
C            2.85060086876022       -0.31007226721155       -1.27233320737431
C            4.28507928880004       -0.13157605190140       -0.86110066990986
C            4.92430906884604        1.08349481778847       -1.04906806601366
C            6.24252254952103        1.26076430195687       -0.65924905356476
C            6.94932792492524        0.22307731738795       -0.06835770347020
O            8.22895736734259        0.27817688213198        0.34296850234897
C            8.95971063815646        1.46950466785856        0.16254775008431
C            6.30050253693840       -1.02716418695652        0.13253221169695
O            7.06153441460043       -1.98015368369228        0.70511373672512
C            6.52573005619770       -3.26691185918415        0.90172163629596
C            4.98026717725407       -1.17897195462116       -0.26174187737801
C           -0.09416840669830       -1.24087049436092       -0.58478495588438
C           -4.20668010113488        2.82489796203637        0.58548886914866
C           -4.80920024021609        2.54347881219414        1.95981905440017
C           -3.95389521460542        4.32204998909937        0.43027906941822
H           -4.51236895037798        0.47046724185008       -1.34911568945488
H           -5.19750578471632       -1.85793284216922       -1.12475080870306
H           -8.72899484724346       -1.09532437956379       -3.48811948210544
H           -7.82321142428475       -1.08024095646801       -5.10555091842622
H           -4.67053375227143       -3.80101466623304        2.78407192041864
H           -4.82167288455474       -5.19871043437756        1.69288687883515
H           -3.22807185608262       -4.44949695872688        1.95092849847610
H           -2.98713356527371       -2.15581258324631        2.52815343386564
H           -2.31146453623958        0.15839969372582        2.30649506019749
H           -3.21495748962491        2.33423405351115       -1.78136987815876
H           -1.86915340344426        3.21874746083621       -1.07053806006618
H           -1.90212941016576        0.21115530112706       -1.61565963248783
H           -1.22929162602189        1.44382934547107       -2.68440963916791
H           -0.88353527445588        1.72163228113971        0.98676610782717
H            0.46019354731363        2.07647263950775       -0.91701187072027
H            2.05953640889193       -0.52079864641650        0.73502003509815
H            2.15511455213620        1.14987079833105        0.15715596523116
H            2.63924723611608        0.30267461125406       -2.15065598953364
H            2.65854272512314       -1.35346542944179       -1.52476339616385
H            4.40023091400297        1.90283661179736       -1.51735986096064
H            6.71544780325343        2.21421545734529       -0.82777369724421
H            8.50834503488484        2.30340102409025        0.70851529407955
H            9.04578120593027        1.72931681805399       -0.89676402557665
H            9.94998321259963        1.26805449535344        0.56631491203645
H            7.33285738235762       -3.85627626476383        1.33215869605397
H            5.68149705166608       -3.24805087882400        1.59832652153661
H            6.21159852819915       -3.71968041537899       -0.04366337229928
H            4.48174854651518       -2.12499836765441       -0.11939683601493
H           -0.22878133947621       -1.58270682695667       -1.61323126741318
H           -1.06938985941674       -1.21525973688404       -0.09370996510614
H            0.53749531690430       -1.95456909860860       -0.06207213008486
H           -4.94005545024344        2.52037201371176       -0.17038889959412
H           -4.12447502438535        2.86122452903703        2.73985011383117
H           -5.02455649121552        1.48527823164925        2.08565503548522
H           -5.73892862406898        3.09538884279229        2.06933429481392
H           -3.17979271032342        4.64688836666709        1.11851088269666
H           -3.66598294327520        4.58236269833064       -0.58453392761936
H           -4.86577348703431        4.86364500854158        0.66626768904094
H           -1.04243701894942        3.19041195948212        2.80431896021127

          :  Hamiltonian                  GFN2-xTB          :
         :: total energy             -99.358463333378 Eh    ::
         :: gradient norm              0.002691252567 Eh/a0 ::
         :: HOMO-LUMO gap              1.674707575656 eV    ::
         :: SCC energy              -100.762471208143 Eh    ::
         :: -> dispersion             -0.072603162794 Eh    ::
         :: repulsion energy           1.402972551966 Eh    ::

    * Orbital Energies and Occupations

         #    Occupation            Energy/Eh            Energy/eV
      -------------------------------------------------------------
         1        2.0000           -0.8071405             -21.9634
       ...           ...                  ...                  ...
        78        1.9979           -0.5265383             -14.3278
        79        1.9978           -0.5263419             -14.3225
        80        1.9969           -0.5207767             -14.1711
        81        1.9951           -0.5132334             -13.9658
        82        1.9942           -0.5107239             -13.8975
        83        1.9937           -0.5093824             -13.8610
        84        1.9929           -0.5074542             -13.8085
        85        1.9878           -0.4988721             -13.5750
        86        1.9778           -0.4892988             -13.3145
        87        1.9688           -0.4838754             -13.1669
        88        1.9308           -0.4709273             -12.8146
        89        1.9101           -0.4666269             -12.6976
        90        1.8373           -0.4566119             -12.4250 (HOMO)
        91        0.3761           -0.3950676             -10.7503 (LUMO)
        92        0.0302           -0.3520651              -9.5802
        93        0.0125           -0.3379285              -9.1955
        94        0.0035           -0.3175781              -8.6417
        95        0.0026           -0.3131733              -8.5219
        96        0.0023           -0.3109778              -8.4621
        97        0.0021           -0.3099459              -8.4341
        98        0.0000           -0.1883711              -5.1258
        99        0.0000           -0.1872131              -5.0943
       100                         -0.1362192              -3.7067
       101                         -0.0662882              -1.8038
       ...                                ...                  ...
       171                          0.5755090              15.6604
      -------------------------------------------------------------
                  HL-Gap            0.0615444 Eh            1.6747 eV

     #   Z          covCN         q      C6AA      α(0)
     1   7 N        1.774    -0.267    27.763     7.803
     2   6 C        2.827     0.103    25.721     8.310
     3   6 C        3.907     0.006    20.421     6.423
     4   6 C        2.975    -0.000    28.029     8.684
     5   6 C        2.923    -0.036    28.904     8.816
     6   6 C        2.918    -0.053    29.327     8.881
     7   8 O        0.856    -0.282    19.465     5.915
     8   6 C        2.702     0.179    24.139     8.042
     9   6 C        2.865     0.148    24.775     8.159
    10   8 O        1.706    -0.244    18.037     5.734
    11   6 C        3.645     0.029    20.416     6.494
    12   6 C        2.915    -0.070    29.749     8.944
    13   6 C        2.923    -0.042    29.039     8.837
    14   6 C        3.812    -0.065    21.731     6.635
    15   6 C        3.802    -0.071    21.854     6.656
    16   6 C        2.844     0.011    27.773     8.637
    17   7 N        2.729     0.014    21.012     6.808
    18   6 C        3.756    -0.017    20.929     6.523
    19   6 C        3.808    -0.070    21.842     6.653
    20   6 C        2.969     0.000    28.022     8.683
    21   6 C        2.922    -0.049    29.206     8.862
    22   6 C        2.914    -0.067    29.674     8.933
    23   6 C        2.865     0.134    25.072     8.208
    24   8 O        1.706    -0.221    17.663     5.674
    25   6 C        3.645     0.025    20.494     6.506
    26   6 C        2.863     0.133    25.079     8.209
    27   8 O        1.706    -0.224    17.709     5.682
    28   6 C        3.645     0.027    20.461     6.501
    29   6 C        2.919    -0.079    29.978     8.979
    30   6 C        3.700    -0.071    22.034     6.713
    31   6 C        3.853    -0.008    20.678     6.468
    32   6 C        3.756    -0.118    22.811     6.810
    33   6 C        3.755    -0.119    22.830     6.813
    34   1 H        0.926     0.052     2.289     2.366
    35   1 H        0.926     0.080     1.977     2.199
    36   1 H        0.923     0.052     2.294     2.369
    37   1 H        0.923     0.052     2.292     2.368
    38   1 H        0.924     0.053     2.283     2.363
    39   1 H        0.925     0.077     2.007     2.215
    40   1 H        0.924     0.046     2.370     2.408
    41   1 H        0.926     0.045     2.386     2.416
    42   1 H        0.926     0.035     2.519     2.482
    43   1 H        0.925     0.064     2.147     2.291
    44   1 H        0.924     0.053     2.278     2.360
    45   1 H        0.925     0.071     2.073     2.251
    46   1 H        0.924     0.083     1.948     2.183
    47   1 H        0.922     0.005     2.977     2.698
    48   1 H        0.926     0.070     2.081     2.256
    49   1 H        0.924     0.068     2.105     2.269
    50   1 H        0.924     0.068     2.110     2.271
    51   1 H        0.924     0.055     2.254     2.348
    52   1 H        0.924     0.056     2.242     2.342
    53   1 H        0.926     0.045     2.379     2.412
    54   1 H        0.926     0.059     2.211     2.325
    55   1 H        0.924     0.055     2.262     2.352
    56   1 H        0.924     0.056     2.241     2.341
    57   1 H        0.925     0.083     1.950     2.184
    58   1 H        0.925     0.082     1.955     2.186
    59   1 H        0.924     0.050     2.326     2.385
    60   1 H        0.924     0.053     2.284     2.363
    61   1 H        0.926     0.048     2.345     2.394
    62   1 H        0.924     0.079     1.993     2.208
    63   1 H        0.924     0.082     1.959     2.189
    64   1 H        0.925     0.080     1.981     2.201
    65   1 H        0.924     0.041     2.437     2.442
    66   1 H        0.925     0.068     2.107     2.270
    67   1 H        0.925     0.036     2.496     2.471
    68   1 H        0.925     0.051     2.307     2.375
    69   1 H        0.925     0.060     2.193     2.316
    70   1 H        0.925     0.035     2.510     2.477
    71   1 H        0.925     0.055     2.258     2.350
    72   1 H        0.860     0.157     1.354     1.823

Wiberg/Mayer (AO) data.
largest (>0.10) Wiberg bond orders for each atom

     #   Z sym  total        # sym  WBO       # sym  WBO       # sym  WBO
 ---------------------------------------------------------------------------
     1   7 N    3.039 --     2 C    1.956    72 H    0.941
     2   6 C    3.931 --     1 N    1.956     3 C    0.995    47 H    0.901
     3   6 C    3.973 --     2 C    0.995     4 C    0.970    14 C    0.956
                            31 C    0.941
     4   6 C    3.946 --    13 C    1.405     5 C    1.369     3 C    0.970
     5   6 C    3.975 --     6 C    1.484     4 C    1.369    34 H    0.963
     6   6 C    3.954 --     5 C    1.484     9 C    1.319    35 H    0.962
     7   8 O    2.070 --     8 C    1.981
     8   6 C    3.860 --     7 O    1.981    37 H    0.940    36 H    0.939
     9   6 C    3.910 --    12 C    1.354     6 C    1.319    10 O    1.096
    10   8 O    2.245 --     9 C    1.096    11 C    0.978
    11   6 C    3.934 --    10 O    0.978    39 H    0.978    38 H    0.974
                            40 H    0.974
    12   6 C    3.959 --    13 C    1.437     9 C    1.354    41 H    0.965
    13   6 C    3.973 --    12 C    1.437     4 C    1.405    42 H    0.962
    14   6 C    3.971 --    15 C    0.979    44 H    0.973    43 H    0.967
                             3 C    0.956
    15   6 C    3.985 --    16 C    1.062    14 C    0.979    45 H    0.960
                            46 H    0.925
    16   6 C    3.607 --    17 N    1.412    15 C    1.062    48 H    0.957
    17   7 N    3.489 --    16 C    1.412    30 C    0.997    18 C    0.988
    18   6 C    3.955 --    17 N    0.988    50 H    0.967    19 C    0.966
                            49 H    0.965
    19   6 C    3.976 --    20 C    1.008    52 H    0.972    51 H    0.971
                            18 C    0.966
    20   6 C    3.943 --    21 C    1.407    29 C    1.381    19 C    1.008
    21   6 C    3.948 --    22 C    1.418    20 C    1.407    53 H    0.968
    22   6 C    3.959 --    21 C    1.418    23 C    1.382    54 H    0.963
    23   6 C    3.894 --    22 C    1.382    26 C    1.218    24 O    1.112
    24   8 O    2.255 --    23 C    1.112    25 C    0.976
    25   6 C    3.928 --    57 H    0.977    24 O    0.976    55 H    0.972
                            56 H    0.972
    26   6 C    3.897 --    29 C    1.394    23 C    1.218    27 O    1.105
    27   8 O    2.255 --    26 C    1.105    28 C    0.978
    28   6 C    3.931 --    27 O    0.978    58 H    0.977    59 H    0.973
                            60 H    0.973
    29   6 C    3.958 --    26 C    1.394    20 C    1.381    61 H    0.962
    30   6 C    3.956 --    17 N    0.997    64 H    0.977    62 H    0.965
                            63 H    0.961
    31   6 C    3.969 --    33 C    1.008    32 C    1.008    65 H    0.959
                             3 C    0.941
    32   6 C    3.977 --    31 C    1.008    67 H    0.981    68 H    0.981
                            66 H    0.973
    33   6 C    3.981 --    31 C    1.008    70 H    0.983    71 H    0.980
                            69 H    0.976
    34   1 H    0.995 --     5 C    0.963
    35   1 H    0.991 --     6 C    0.962
    36   1 H    0.988 --     8 C    0.939
    37   1 H    0.988 --     8 C    0.940
    38   1 H    0.993 --    11 C    0.974
    39   1 H    0.993 --    11 C    0.978
    40   1 H    0.994 --    11 C    0.974
    41   1 H    0.997 --    12 C    0.965
    42   1 H    0.998 --    13 C    0.962
    43   1 H    0.994 --    14 C    0.967
    44   1 H    0.996 --    14 C    0.973
    45   1 H    0.994 --    15 C    0.960
    46   1 H    0.970 --    15 C    0.925
    47   1 H    0.985 --     2 C    0.901
    48   1 H    0.995 --    16 C    0.957
    49   1 H    0.991 --    18 C    0.965
    50   1 H    0.994 --    18 C    0.967
    51   1 H    0.996 --    19 C    0.971
    52   1 H    0.996 --    19 C    0.972
    53   1 H    0.997 --    21 C    0.968
    54   1 H    0.995 --    22 C    0.963
    55   1 H    0.991 --    25 C    0.972
    56   1 H    0.991 --    25 C    0.972
    57   1 H    0.992 --    25 C    0.977
    58   1 H    0.993 --    28 C    0.977
    59   1 H    0.993 --    28 C    0.973
    60   1 H    0.993 --    28 C    0.973
    61   1 H    0.996 --    29 C    0.962
    62   1 H    0.984 --    30 C    0.965
    63   1 H    0.987 --    30 C    0.961
    64   1 H    0.993 --    30 C    0.977
    65   1 H    0.991 --    31 C    0.959
    66   1 H    0.990 --    32 C    0.973
    67   1 H    0.996 --    32 C    0.981
    68   1 H    0.994 --    32 C    0.981
    69   1 H    0.992 --    33 C    0.976
    70   1 H    0.997 --    33 C    0.983
    71   1 H    0.993 --    33 C    0.980
    72   1 H    0.970 --     1 N    0.941
 ---------------------------------------------------------------------------

molecular dipole:
                 x           y           z       tot (Debye)
 q only:        0.704       0.024      -0.683
   full:        0.806      -0.111      -0.844       2.979

           -------------------------------------------------
          | TOTAL ENERGY              -99.358463333378 Eh   |
          | GRADIENT NORM               0.002691252567 Eh/α |
          | HOMO-LUMO GAP               1.674707575656 eV   |
           -------------------------------------------------

 * finished run on 2024/04/06 at 11:12:39.839
