   * xtb version 6.6.1 (8d0f1dd) compiled by 'conda@1efc2f54142f' on 2023-08-01
          program call               : xtb struc.xyz --opt loose --input .xc1 --gfn2

   ID    Z sym.   atoms
    1    6 C      1, 3, 5-7, 10, 11, 14
    2    7 N      2, 4, 9, 13
    3    8 O      8, 12
    4    1 H      15-25
constraining bond 3 25 to    2.7133300 Å, actual value:    2.1044033 Å

          :  Hamiltonian                  GFN2-xTB          :
 * total energy  :   -42.9099190 Eh     change       -0.6650680E-10 Eh
 * total energy  :   -45.1434338 Eh     change       -0.2233515E+01 Eh
 * total energy  :   -48.5285666 Eh     change       -0.3385133E+01 Eh
 * total energy  :   -29.6353356 Eh     change        0.1889323E+02 Eh
 * total energy  :   -49.6078871 Eh     change       -0.1997255E+02 Eh
 * total energy  :   -49.5600486 Eh     change        0.4783850E-01 Eh
 * total energy  :   -49.6544307 Eh     change       -0.9438212E-01 Eh
 * total energy  :   -49.7087596 Eh     change       -0.5432892E-01 Eh
 * total energy  :   -49.7171932 Eh     change       -0.8433574E-02 Eh
 * total energy  :   -49.7271711 Eh     change       -0.9977932E-02 Eh
 * total energy  :   -49.8844001 Eh     change       -0.1179616E-03 Eh
 * total energy  :   -49.8845174 Eh     change       -0.1172395E-03 Eh
 * total energy  :   -49.8846268 Eh     change       -0.1094752E-03 Eh
 * total energy  :   -49.8847055 Eh     change       -0.7867654E-04 Eh
 * total energy  :   -49.8847572 Eh     change       -0.5167120E-04 Eh
 * total energy  :   -49.8847487 Eh     change        0.8544160E-05 Eh
 * total energy  :   -49.8847108 Eh     change        0.3787278E-04 Eh
 * total energy  :   -49.8848080 Eh     change       -0.9717773E-04 Eh
 * total energy  :   -49.8848231 Eh     change       -0.1515043E-04 Eh
   *** GEOMETRY OPTIMIZATION CONVERGED AFTER 60 ITERATIONS ***

 final structure:
================
25
 xtb: 6.6.1 (8d0f1dd)
C            3.11243789997930        1.41951940367177       -0.08791875107589
N            2.27682499346717        0.30593425836434       -0.08453744014229
C            2.31617087350299       -2.59691844287164        0.01914364896829
N            1.14771278917511       -2.15219987952822       -0.28005729410846
C            0.39822842369461       -1.09651933443097       -0.07640165796900
C            1.00302310615728        0.22196198383035       -0.07980056156646
C            0.07694145709193        1.40382453675007       -0.06893057881127
O            0.49940167667542        2.53609882648816       -0.10545199683157
N           -1.25833783366156        1.10885033104881       -0.00060798206220
C           -2.21085813727742        2.21250866089084        0.03819654557415
C           -1.82698041455023       -0.15554990172917        0.03671981380306
O           -3.01169828297991       -0.31875542035357        0.11116951147230
N           -0.93998198747018       -1.23748298171007       -0.01815316511007
C           -1.50541817916312       -2.57209315515846        0.00150158876503
H            3.78377996727192        1.35131838270642        0.77344886923700
H            3.74086788456298        1.36895591609068       -0.98320044909225
H            2.57040834088802        2.37503570903271       -0.06644287851643
H            2.73470967747430       -2.14037259056771        0.96315585488921
H           -1.65838015128088        3.14806392480016        0.07283228158337
H           -2.84431479429769        2.18282629310791       -0.84846015824237
H           -2.84706061121463        2.11219714684216        0.91742255469947
H           -1.33851190564639       -3.04486437235331        0.97012075786981
H           -1.03242271213986       -3.17345032230092       -0.77508491578732
H           -2.57659257067229       -2.49507069049023       -0.17739154244852
H            2.55048200451362       -2.94557974053019       -0.22010043719730

          :  Hamiltonian                  GFN2-xTB          :
         :: total energy             -49.884823108870 Eh    ::
         :: gradient norm              0.003313364014 Eh/a0 ::
         :: HOMO-LUMO gap              1.015865461429 eV    ::
         :: SCC energy               -42.714067620236 Eh    ::
         :: -> dispersion             -0.022051227491 Eh    ::
         :: repulsion energy           1.707594627448 Eh    ::

    * Orbital Energies and Occupations

         #    Occupation            Energy/Eh            Energy/eV
      -------------------------------------------------------------
         1        2.0000           -0.8964348             -24.3932
       ...           ...                  ...                  ...
        25        1.9999           -0.6775554             -18.4372
        26        1.9998           -0.6662711             -18.1302
        27        1.9992           -0.6470789             -17.6079
        28        1.9992           -0.6461177             -17.5818
        29        1.9981           -0.6329961             -17.2247
        30        1.9979           -0.6307993             -17.1649
        31        1.9961           -0.6213205             -16.9070
        32        1.9932           -0.6123922             -16.6640
        33        1.9890           -0.6047424             -16.4559
        34        1.9784           -0.5939982             -16.1635
        35        1.9636           -0.5856627             -15.9367
        36        1.9441           -0.5786871             -15.7469
        37        1.5714           -0.5430725             -14.7778 (HOMO)
        38        0.5152           -0.5057402             -13.7619 (LUMO)
        39        0.0536           -0.4656151             -12.6700
        40        0.0013           -0.4064245             -11.0594
        41        0.0004           -0.3879856             -10.5576
        42        0.0000           -0.3033218              -8.2538
        43                         -0.1992584              -5.4221
        44                         -0.1468079              -3.9948
        45                         -0.1007708              -2.7421
        46                         -0.0888183              -2.4169
        47                         -0.0398576              -1.0846
        48                         -0.0354051              -0.9634
       ...                                ...                  ...
        67                          6.8781163             187.1631
      -------------------------------------------------------------
                  HL-Gap            0.0373324 Eh            1.0159 eV

     #   Z          covCN         q      C6AA      α(0)
     1   6 C        3.692    -0.055    21.759     6.674
     2   7 N        1.836    -0.111    24.187     7.288
     3   6 C        2.768     0.003    27.946     8.658
     4   7 N        1.868    -0.078    23.510     7.187
     5   6 C        2.854     0.136    25.016     8.198
     6   6 C        2.894     0.052    26.835     8.493
     7   6 C        2.765     0.270    22.443     7.758
     8   8 O        0.859    -0.320    20.151     6.019
     9   7 N        2.738    -0.066    22.511     7.047
    10   6 C        3.709    -0.063    21.859     6.682
    11   6 C        2.721     0.320    21.556     7.600
    12   8 O        0.860    -0.331    20.341     6.047
    13   7 N        2.748    -0.024    21.711     6.920
    14   6 C        3.706    -0.078    22.139     6.726
    15   1 H        0.924     0.127     1.559     1.952
    16   1 H        0.924     0.130     1.536     1.938
    17   1 H        0.923     0.133     1.516     1.925
    18   1 H        0.918     0.104     1.752     2.070
    19   1 H        0.925     0.116     1.650     2.009
    20   1 H        0.925     0.108     1.715     2.048
    21   1 H        0.925     0.109     1.701     2.040
    22   1 H        0.924     0.101     1.772     2.082
    23   1 H        0.925     0.107     1.727     2.055
    24   1 H        0.925     0.129     1.546     1.944
    25   1 H        0.958     0.183     1.189     1.704

Wiberg/Mayer (AO) data.
largest (>0.10) Wiberg bond orders for each atom

     #   Z sym  total        # sym  WBO       # sym  WBO       # sym  WBO
 ---------------------------------------------------------------------------
     1   6 C    3.876 --     2 N    1.104    15 H    0.911    16 H    0.907
                            17 H    0.892
     2   7 N    2.909 --     6 C    1.648     1 C    1.104
     3   6 C    3.737 --     4 N    1.752    25 H    0.947    18 H    0.908
     4   7 N    3.317 --     3 C    1.752     5 C    1.369
     5   6 C    3.843 --     4 N    1.369    13 N    1.239     6 C    1.076
     6   6 C    3.886 --     2 N    1.648     5 C    1.076     7 C    0.940
     7   6 C    3.894 --     8 O    1.695     9 N    1.163     6 C    0.940
     8   8 O    2.007 --     7 C    1.695     9 N    0.139
     9   7 N    3.541 --     7 C    1.163    11 C    1.093    10 C    0.963
                             8 O    0.139    12 O    0.117
    10   6 C    3.888 --    19 H    0.967     9 N    0.963    21 H    0.957
                            20 H    0.956
    11   6 C    3.943 --    12 O    1.715     9 N    1.093    13 N    1.053
    12   8 O    2.030 --    11 C    1.715     9 N    0.117    13 N    0.104
    13   7 N    3.555 --     5 C    1.239    11 C    1.053    14 C    0.974
                            12 O    0.104
    14   6 C    3.904 --    13 N    0.974    24 H    0.963    22 H    0.957
                            23 H    0.957
    15   1 H    0.957 --     1 C    0.911
    16   1 H    0.953 --     1 C    0.907
    17   1 H    0.921 --     1 C    0.892
    18   1 H    0.959 --     3 C    0.908
    19   1 H    0.983 --    10 C    0.967
    20   1 H    0.975 --    10 C    0.956
    21   1 H    0.976 --    10 C    0.957
    22   1 H    0.979 --    14 C    0.957
    23   1 H    0.982 --    14 C    0.957
    24   1 H    0.981 --    14 C    0.963
    25   1 H    0.964 --     3 C    0.947
 ---------------------------------------------------------------------------

molecular dipole:
                 x           y           z       tot (Debye)
 q only:        1.700      -1.291       0.078
   full:        1.834      -1.144       0.196       5.517

           -------------------------------------------------
          | TOTAL ENERGY              -49.884823108870 Eh   |
          | GRADIENT NORM               0.003313364014 Eh/α |
          | HOMO-LUMO GAP               1.015865461429 eV   |
           -------------------------------------------------

 * finished run on 2024/06/05 at 19:59:11.069
