   * xtb version 6.6.1 (8d0f1dd) compiled by 'conda@1efc2f54142f' on 2023-08-01
          program call               : xtb struc.xyz --opt loose --input .xc1 --gfn2

   ID    Z sym.   atoms
    1    7 N      1, 17
    2    6 C      2-6, 8, 9, 11-16, 18-23, 25, 26, 28-33
    3    8 O      7, 10, 24, 27
    4    1 H      34-72
constraining bond 22 56 to    4.7133300 Å, actual value:    2.8344679 Å

          :  Hamiltonian                  GFN2-xTB          :
 * total energy  :  -100.0344457 Eh     change       -0.4035485E-08 Eh
 * total energy  :  -100.5096383 Eh     change       -0.4751926E+00 Eh
 * total energy  :  -101.0766603 Eh     change       -0.5670221E+00 Eh
 * total energy  :  -101.7234220 Eh     change       -0.6467616E+00 Eh
 * total energy  :   -97.7304414 Eh     change        0.3992981E+01 Eh
 * total energy  :  -101.7940292 Eh     change       -0.4063588E+01 Eh
 * total energy  :  -101.8530394 Eh     change       -0.5901021E-01 Eh
 * total energy  :  -101.8989647 Eh     change       -0.4592526E-01 Eh
 * total energy  :  -101.9266294 Eh     change       -0.2766470E-01 Eh
 * total energy  :  -101.9353404 Eh     change       -0.8711090E-02 Eh
 * total energy  :  -101.9860617 Eh     change       -0.7207104E-03 Eh
 * total energy  :  -101.9870598 Eh     change       -0.9981026E-03 Eh
 * total energy  :  -101.9874931 Eh     change       -0.4333126E-03 Eh
 * total energy  :  -101.9877784 Eh     change       -0.2853035E-03 Eh
 * total energy  :  -101.9879498 Eh     change       -0.1713378E-03 Eh
 * total energy  :  -101.9880651 Eh     change       -0.1152837E-03 Eh
 * total energy  :  -101.9881295 Eh     change       -0.6447390E-04 Eh
 * total energy  :  -101.9881746 Eh     change       -0.4508977E-04 Eh
 * total energy  :  -101.9882098 Eh     change       -0.3513768E-04 Eh
   *** GEOMETRY OPTIMIZATION CONVERGED AFTER 32 ITERATIONS ***

 final structure:
================
72
 xtb: 6.6.1 (8d0f1dd)
N           -1.81394398704084        2.80668533968333        2.19444896254269
C           -1.78158084430456        2.11006216107965        1.15742260123902
C           -2.94370195296584        1.90284693120398        0.22655953961350
C           -3.41680592451549        0.45916072193411        0.31761171922921
C           -4.37282973301953       -0.01330392387574       -0.58410123470665
C           -4.85179645561557       -1.31050230698681       -0.51820714512826
O           -5.78456018640830       -1.83975575412587       -1.33919623912188
C           -6.42094379683852       -1.01043193206209       -2.28230359475324
C           -4.35161509874318       -2.19114939311481        0.47724219317354
O           -4.86839856822635       -3.43814374943773        0.46313719371558
C           -4.49135142582594       -4.34460896032827        1.47243412449174
C           -3.40176920690202       -1.71763281021825        1.36709884813501
C           -2.94400341713967       -0.40778413963983        1.28935570472271
C           -2.40985030445272        2.18965208626999       -1.20137356247974
C           -1.47521174994387        1.10220890109884       -1.76321555801222
C           -0.13084819228514        1.10769666233375       -1.14476606217982
N            0.54970970088317        0.02741847520557       -0.76356422402244
C            1.92128902845845        0.14722123451299       -0.33112837279190
C            2.91682672659693       -0.21868497839591       -1.44740980085461
C            4.32552178248696       -0.02278528364114       -0.95254769153601
C            4.96462096333290        1.14712457247700       -1.15237054732285
C            6.35607715696025        1.44449295603035       -0.65602784577262
C            6.95689018544978        0.23626390917172        0.03138420395194
O            8.18605779144750        0.28343051686964        0.50331900162119
C            8.99081448128891        1.30081094693859        0.45851838430971
C            6.23698898153523       -0.96756564148629        0.23014078284530
O            6.92325591215258       -1.92287084791755        0.89499370216388
C            6.30694496020976       -3.16528763271730        1.14192870290822
C            4.94590741806880       -1.08854085979177       -0.24035210051839
C           -0.02080052019601       -1.29652737255437       -0.82542159055361
C           -4.15181710998886        2.83516687945070        0.53861366980414
C           -4.77484805523490        2.50683569098232        1.89355755183638
C           -3.79632426765105        4.31837838559709        0.48138983389428
H           -4.76034245052729        0.64994112163533       -1.33932200164396
H           -6.91752867111947       -0.16251861720710       -1.80073199278209
H           -7.16791719063651       -1.63770986221853       -2.76492527539930
H           -5.71747210225410       -0.64352740923240       -3.03699831865454
H           -4.73730001117234       -3.96191167872787        2.46745501216984
H           -5.06550292171613       -5.24917696864387        1.28186411198918
H           -3.42267840954590       -4.57809601290731        1.42454986417171
H           -3.01700728765531       -2.35787087099329        2.14434427766777
H           -2.22910790124209       -0.06658433091660        2.02208587707532
H           -3.25856608672416        2.28743133490963       -1.87753347549704
H           -1.88162734280929        3.14386425020900       -1.19588114303319
H           -1.95409535705287        0.12839610065223       -1.67557917016392
H           -1.35017663873773        1.31663594437150       -2.83288410038143
H           -0.87069139079162        1.59993994184971        0.78883704525851
H            0.40423248646896        2.04527610417777       -1.12160798345793
H            2.08421781182684       -0.50584456130059        0.53058096571480
H            2.11117566418009        1.17632094597505       -0.01806505379873
H            2.73187303953917        0.42517999394190       -2.30852105328151
H            2.76585953305103       -1.25477591886681       -1.75196023113487
H            4.49385380411281        1.94608788841366       -1.70639288453446
H            6.23198538805422        2.21911565312036        0.14654688420201
H            8.73217577227968        2.24582772442071        0.01088887153483
H            6.78582297008700        1.70896864852181       -1.20319824010286
H            9.95424166583342        1.14106202340320        0.90211916368323
H            7.04592376688241       -3.75323150081471        1.68277897605830
H            5.41154376240135       -3.05197164336776        1.76100443358753
H            6.04835010848175       -3.67741355009269        0.21066299769937
H            4.39651756175193       -2.00388094182296       -0.10309556776109
H           -0.19277717976433       -1.60510004773931       -1.85898832107788
H           -0.97162410133257       -1.32857226030380       -0.28727091502193
H            0.66282373946703       -2.00315512856349       -0.36176230996192
H           -4.90402756835219        2.63876447974148       -0.23378477716726
H           -4.06336291176597        2.70697554843364        2.68796482541592
H           -5.07724604404636        1.46373418112317        1.94461657373575
H           -5.65394644221348        3.12646329020481        2.05007857328181
H           -3.03662381842310        4.55286060568818        1.22048065373830
H           -3.44344111532370        4.61404338230653       -0.50311629741165
H           -4.68231537209051        4.90595790033286        0.70715379438898
H           -0.95660745369167        2.89275297824701        2.73169990305255

          :  Hamiltonian                  GFN2-xTB          :
         :: total energy            -101.988209765639 Eh    ::
         :: gradient norm              0.003553117676 Eh/a0 ::
         :: HOMO-LUMO gap              1.150577438935 eV    ::
         :: SCC energy              -100.725981749061 Eh    ::
         :: -> dispersion             -0.075088184125 Eh    ::
         :: repulsion energy           1.549242869991 Eh    ::

    * Orbital Energies and Occupations

         #    Occupation            Energy/Eh            Energy/eV
      -------------------------------------------------------------
         1        2.0000           -0.8491685             -23.1071
       ...           ...                  ...                  ...
        78        1.9992           -0.5304618             -14.4346
        79        1.9987           -0.5224596             -14.2168
        80        1.9986           -0.5221936             -14.2096
        81        1.9986           -0.5213564             -14.1868
        82        1.9980           -0.5157210             -14.0335
        83        1.9968           -0.5085660             -13.8388
        84        1.9962           -0.5059506             -13.7676
        85        1.9955           -0.5029988             -13.6873
        86        1.9841           -0.4830686             -13.1450
        87        1.9829           -0.4818590             -13.1121
        88        1.9491           -0.4643390             -12.6353
        89        1.8941           -0.4522871             -12.3074
        90        1.6064           -0.4288874             -11.6706 (HOMO)
        91        0.4406           -0.3866044             -10.5200 (LUMO)
        92        0.1375           -0.3653589              -9.9419
        93        0.0177           -0.3319373              -9.0325
        94        0.0042           -0.3090035              -8.4084
        95        0.0034           -0.3058630              -8.3230
        96        0.0034           -0.3055722              -8.3150
        97        0.0000           -0.2257134              -6.1420
        98        0.0000           -0.1830389              -4.9807
        99                         -0.1315222              -3.5789
       100                         -0.0765806              -2.0839
       101                         -0.0622542              -1.6940
       ...                                ...                  ...
       171                          1.4087549              38.3342
      -------------------------------------------------------------
                  HL-Gap            0.0422829 Eh            1.1506 eV

     #   Z          covCN         q      C6AA      α(0)
     1   7 N        1.773    -0.273    27.913     7.824
     2   6 C        2.826     0.101    25.761     8.317
     3   6 C        3.907     0.006    20.416     6.422
     4   6 C        2.974     0.002    27.981     8.677
     5   6 C        2.921    -0.080    29.999     8.982
     6   6 C        2.862     0.128    25.183     8.226
     7   8 O        1.706    -0.234    17.871     5.708
     8   6 C        3.644     0.029    20.427     6.496
     9   6 C        2.864     0.127    25.209     8.230
    10   8 O        1.706    -0.233    17.856     5.705
    11   6 C        3.645     0.028    20.430     6.496
    12   6 C        2.914    -0.075    29.880     8.964
    13   6 C        2.921    -0.054    29.344     8.883
    14   6 C        3.812    -0.064    21.725     6.634
    15   6 C        3.802    -0.068    21.803     6.648
    16   6 C        2.843     0.002    27.967     8.667
    17   7 N        2.729     0.003    21.205     6.839
    18   6 C        3.756    -0.015    20.901     6.519
    19   6 C        3.809    -0.073    21.883     6.659
    20   6 C        2.954     0.005    27.902     8.664
    21   6 C        2.907    -0.066    29.650     8.929
    22   6 C        3.806    -0.100    22.398     6.737
    23   6 C        2.866     0.079    26.232     8.396
    24   8 O        1.711    -0.070    15.415     5.301
    25   6 C        2.744     0.002    27.954     8.657
    26   6 C        2.848     0.136    25.018     8.198
    27   8 O        1.706    -0.240    17.978     5.725
    28   6 C        3.644     0.028    20.446     6.499
    29   6 C        2.915    -0.095    30.396     9.041
    30   6 C        3.699    -0.068    21.976     6.705
    31   6 C        3.853    -0.007    20.673     6.467
    32   6 C        3.756    -0.118    22.820     6.811
    33   6 C        3.755    -0.118    22.810     6.810
    34   1 H        0.926     0.050     2.314     2.379
    35   1 H        0.924     0.052     2.293     2.368
    36   1 H        0.925     0.079     1.987     2.204
    37   1 H        0.924     0.046     2.372     2.409
    38   1 H        0.924     0.053     2.282     2.362
    39   1 H        0.925     0.079     1.989     2.205
    40   1 H        0.924     0.046     2.372     2.408
    41   1 H        0.926     0.049     2.328     2.386
    42   1 H        0.926     0.036     2.499     2.472
    43   1 H        0.925     0.058     2.220     2.330
    44   1 H        0.924     0.052     2.301     2.372
    45   1 H        0.925     0.065     2.143     2.289
    46   1 H        0.923     0.076     2.023     2.224
    47   1 H        0.922     0.005     2.977     2.698
    48   1 H        0.926     0.065     2.142     2.289
    49   1 H        0.924     0.066     2.130     2.282
    50   1 H        0.924     0.065     2.147     2.291
    51   1 H        0.924     0.054     2.271     2.357
    52   1 H        0.924     0.058     2.227     2.334
    53   1 H        0.926     0.044     2.391     2.418
    54   1 H        0.919     0.067     2.117     2.275
    55   1 H        0.926     0.057     2.229     2.335
    56   1 H        0.931     0.124     1.577     1.964
    57   1 H        0.926     0.086     1.917     2.165
    58   1 H        0.925     0.080     1.975     2.198
    59   1 H        0.924     0.048     2.341     2.393
    60   1 H        0.924     0.052     2.290     2.366
    61   1 H        0.926     0.046     2.369     2.407
    62   1 H        0.924     0.074     2.042     2.235
    63   1 H        0.924     0.078     2.000     2.212
    64   1 H        0.925     0.077     2.009     2.217
    65   1 H        0.924     0.036     2.509     2.477
    66   1 H        0.925     0.068     2.107     2.270
    67   1 H        0.925     0.035     2.521     2.483
    68   1 H        0.925     0.049     2.331     2.387
    69   1 H        0.925     0.059     2.207     2.323
    70   1 H        0.925     0.033     2.546     2.495
    71   1 H        0.925     0.052     2.289     2.366
    72   1 H        0.860     0.153     1.381     1.841

Wiberg/Mayer (AO) data.
largest (>0.10) Wiberg bond orders for each atom

     #   Z sym  total        # sym  WBO       # sym  WBO       # sym  WBO
 ---------------------------------------------------------------------------
     1   7 N    3.037 --     2 C    1.952    72 H    0.943
     2   6 C    3.925 --     1 N    1.952     3 C    0.996    47 H    0.900
     3   6 C    3.978 --     2 C    0.996     4 C    0.968    14 C    0.958
                            31 C    0.944
     4   6 C    3.954 --    13 C    1.419     5 C    1.367     3 C    0.968
     5   6 C    3.965 --     6 C    1.404     4 C    1.367    34 H    0.958
     6   6 C    3.910 --     5 C    1.404     9 C    1.226     7 O    1.095
     7   8 O    2.253 --     6 C    1.095     8 C    0.979
     8   6 C    3.934 --     7 O    0.979    36 H    0.977    35 H    0.974
                            37 H    0.974
     9   6 C    3.907 --    12 C    1.396     6 C    1.226    10 O    1.096
    10   8 O    2.251 --     9 C    1.096    11 C    0.979
    11   6 C    3.934 --    10 O    0.979    39 H    0.977    40 H    0.974
                            38 H    0.974
    12   6 C    3.965 --    13 C    1.401     9 C    1.396    41 H    0.964
    13   6 C    3.959 --     4 C    1.419    12 C    1.401    42 H    0.963
    14   6 C    3.973 --    15 C    0.982    44 H    0.972    43 H    0.969
                             3 C    0.958
    15   6 C    3.988 --    16 C    1.059    14 C    0.982    45 H    0.961
                            46 H    0.929
    16   6 C    3.562 --    17 N    1.376    15 C    1.059    48 H    0.958
    17   7 N    3.456 --    16 C    1.376    30 C    0.999    18 C    0.990
    18   6 C    3.961 --    17 N    0.990    19 C    0.970    50 H    0.968
                            49 H    0.964
    19   6 C    3.977 --    20 C    1.003    51 H    0.973    52 H    0.971
                            18 C    0.970
    20   6 C    3.967 --    21 C    1.671    29 C    1.211    19 C    1.003
    21   6 C    3.838 --    20 C    1.671    22 C    1.027    53 H    0.968
    22   6 C    3.974 --    21 C    1.027    23 C    1.006    56 H    0.948
                            54 H    0.912
    23   6 C    3.763 --    26 C    1.236    24 O    1.176    22 C    1.006
                            25 C    0.224
    24   8 O    2.567 --    25 C    1.278    23 C    1.176
    25   6 C    3.578 --    24 O    1.278    55 H    0.969    57 H    0.969
                            23 C    0.224
    26   6 C    3.898 --    29 C    1.418    23 C    1.236    27 O    1.094
    27   8 O    2.258 --    26 C    1.094    28 C    0.977
    28   6 C    3.934 --    58 H    0.977    27 O    0.977    59 H    0.975
                            60 H    0.975
    29   6 C    3.806 --    26 C    1.418    20 C    1.211    61 H    0.965
    30   6 C    3.959 --    17 N    0.999    64 H    0.978    62 H    0.968
                            63 H    0.962
    31   6 C    3.975 --    33 C    1.009    32 C    1.008    65 H    0.961
                             3 C    0.944
    32   6 C    3.982 --    31 C    1.008    67 H    0.982    68 H    0.982
                            66 H    0.975
    33   6 C    3.985 --    31 C    1.009    70 H    0.983    71 H    0.981
                            69 H    0.977
    34   1 H    0.996 --     5 C    0.958
    35   1 H    0.994 --     8 C    0.974
    36   1 H    0.993 --     8 C    0.977
    37   1 H    0.995 --     8 C    0.974
    38   1 H    0.994 --    11 C    0.974
    39   1 H    0.993 --    11 C    0.977
    40   1 H    0.994 --    11 C    0.974
    41   1 H    0.996 --    12 C    0.964
    42   1 H    0.998 --    13 C    0.963
    43   1 H    0.995 --    14 C    0.969
    44   1 H    0.996 --    14 C    0.972
    45   1 H    0.995 --    15 C    0.961
    46   1 H    0.969 --    15 C    0.929
    47   1 H    0.989 --     2 C    0.900
    48   1 H    0.995 --    16 C    0.958
    49   1 H    0.991 --    18 C    0.964
    50   1 H    0.995 --    18 C    0.968
    51   1 H    0.996 --    19 C    0.973
    52   1 H    0.996 --    19 C    0.971
    53   1 H    0.998 --    21 C    0.968
    54   1 H    0.964 --    22 C    0.912
    55   1 H    0.997 --    25 C    0.969
    56   1 H    0.976 --    22 C    0.948
    57   1 H    0.992 --    25 C    0.969
    58   1 H    0.993 --    28 C    0.977
    59   1 H    0.995 --    28 C    0.975
    60   1 H    0.995 --    28 C    0.975
    61   1 H    0.997 --    29 C    0.965
    62   1 H    0.985 --    30 C    0.968
    63   1 H    0.987 --    30 C    0.962
    64   1 H    0.994 --    30 C    0.978
    65   1 H    0.994 --    31 C    0.961
    66   1 H    0.992 --    32 C    0.975
    67   1 H    0.997 --    32 C    0.982
    68   1 H    0.995 --    32 C    0.982
    69   1 H    0.994 --    33 C    0.977
    70   1 H    0.998 --    33 C    0.983
    71   1 H    0.995 --    33 C    0.981
    72   1 H    0.972 --     1 N    0.943
 ---------------------------------------------------------------------------

molecular dipole:
                 x           y           z       tot (Debye)
 q only:        2.299       0.088      -0.803
   full:        2.626       0.028      -0.939       7.090

           -------------------------------------------------
          | TOTAL ENERGY             -101.988209765639 Eh   |
          | GRADIENT NORM               0.003553117676 Eh/α |
          | HOMO-LUMO GAP               1.150577438935 eV   |
           -------------------------------------------------

 * finished run on 2024/04/06 at 11:17:03.237
