   * xtb version 6.6.1 (8d0f1dd) compiled by 'conda@1efc2f54142f' on 2023-08-01
          program call               : xtb xtbopt.xyz --opt crude --input .xc2 --gfn2

   ID    Z sym.   atoms
    1    7 N      1, 17
    2    6 C      2-6, 8, 9, 11-16, 18-23, 25, 26, 28-33
    3    8 O      7, 10, 24, 27
    4    1 H      34-72
########################################################################
[WARNING] Please study the warnings concerning your input carefully
-1- readin_getIntValue: could not parse ''
########################################################################

          :  Hamiltonian                  GFN2-xTB          :
 * total energy  :   -99.1754654 Eh     change       -0.2671641E-11 Eh
 * total energy  :   -99.3365795 Eh     change       -0.1611141E+00 Eh
 * total energy  :   -99.3383775 Eh     change       -0.1798016E-02 Eh
 * total energy  :   -99.3394019 Eh     change       -0.1024351E-02 Eh
 * total energy  :   -99.3396045 Eh     change       -0.2026652E-03 Eh
   *** GEOMETRY OPTIMIZATION CONVERGED AFTER 5 ITERATIONS ***

 final structure:
================
72
 xtb: 6.6.1 (8d0f1dd)
N           -1.81640503219986        2.81214658153306        2.19429449492571
C           -1.78396081382683        2.11252435421427        1.15942300755894
C           -2.94509845283207        1.90447225423290        0.22752622689412
C           -3.41589092992830        0.46001775316797        0.31788748732149
C           -4.37022881742853       -0.01358540651881       -0.58500605222559
C           -4.84794475898169       -1.31119348925050       -0.51960671341525
O           -5.77900770672928       -1.84149122795696       -1.34175205283095
C           -6.41475247772602       -1.01243880878577       -2.28546805547772
C           -4.34858680758958       -2.19114571846813        0.47692748853871
O           -4.86540531466037       -3.43803242602884        0.46283102336945
C           -4.48951577433106       -4.34432621700455        1.47271101342283
C           -3.39989906514384       -1.71677706522600        1.36754121792026
C           -2.94316308236193       -0.40650209824188        1.29005266569740
C           -2.40966597995460        2.19305663279580       -1.19957617564891
C           -1.47600915010290        1.10548657955397       -1.76149616655148
C           -0.13445899170129        1.10575252777924       -1.13694603021385
N            0.54349010505181        0.02177723129485       -0.76216358530777
C            1.91409252357567        0.13689159911104       -0.32583530118451
C            2.91342475554920       -0.22775334203074       -1.43931059630281
C            4.31816783510177       -0.02375531366598       -0.93665633096804
C            4.95121533119179        1.15443702544350       -1.11973898129974
C            6.32425173409248        1.43173526180275       -0.60739075677206
C            6.94024772200731        0.24446320827032        0.06578464100619
O            8.17531137293285        0.28500589653316        0.52024157734505
C            8.98438828648900        1.29759046692076        0.46874803778480
C            6.22703880338445       -0.96800499696236        0.25068536540811
O            6.91706606548034       -1.92922698000870        0.90349042527986
C            6.30344936500845       -3.17639992843972        1.13622898428916
C            4.93907574708528       -1.09060454907526       -0.22754320222205
C           -0.03109726678924       -1.30007196154782       -0.82655209450687
C           -4.15487718619233        2.83481064834103        0.53792728052895
C           -4.77850165700697        2.50645298508981        1.89253539918924
C           -3.80188154377431        4.31860343780447        0.47960196444728
H           -4.75703473951773        0.64946774370127       -1.34073027507315
H           -6.91295558954327       -0.16539812279974       -1.80410773241301
H           -7.16023551456994       -1.64018327266638       -2.76966927800421
H           -5.71040839619579       -0.64426567381490       -3.03873649652180
H           -4.73640637195683       -3.96137608184333        2.46743492740490
H           -5.06370423304144       -5.24879958245309        1.28176082062264
H           -3.42087112631198       -4.57805546411166        1.42597888800496
H           -3.01549993554528       -2.35661207584426        2.14531564463525
H           -2.22928444643479       -0.06487746025930        2.02360121453104
H           -3.25736674480452        2.29330085474468       -1.87641526445464
H           -1.87999820437520        3.14638266576122       -1.19162210360325
H           -1.95745076560406        0.13253148420090       -1.67911777116617
H           -1.34500966710446        1.32316561510902       -2.82980508465161
H           -0.87370517346653        1.59940701718842        0.79256966902644
H            0.40395901550414        2.04134928765607       -1.11113028099166
H            2.07314897078358       -0.51890394767168        0.53450393207773
H            2.10604119377737        1.16466491550783       -0.01006842201233
H            2.72831104679328        0.41247135542779       -2.30284238637942
H            2.76671050657599       -1.26526130622271       -1.74118667117258
H            4.47917225912023        1.95707711614924       -1.66483148172753
H            6.27834116121526        2.27018253045512        0.11241483886407
H            8.72275243627109        2.24631390182666        0.03524216392168
H            6.96134645908736        1.78350229985054       -1.42555299232145
H            9.95964008613062        1.12479408598570        0.88124399169714
H            7.04354598890374       -3.76996117219785        1.66919583383970
H            5.40864493758450       -3.07175882707595        1.75731690786879
H            6.04484148070551       -3.67707826304898        0.19854074921728
H            4.39326708588296       -2.00991199527901       -0.09907391185866
H           -0.20675780217288       -1.60492145854660       -1.86049688373263
H           -0.98057691035231       -1.33120537629155       -0.28571353929130
H            0.65179648203808       -2.01009761207222       -0.36731550166370
H           -4.90604556936224        2.63646026911988       -0.23498402403390
H           -4.06777400344686        2.70762534209026        2.68733349063475
H           -5.07996336021248        1.46309221892435        1.94378339882529
H           -5.65823739180196        3.12531756334009        2.04817597678539
H           -3.04111613811184        4.55454408755416        1.21711732882342
H           -3.45147110571375        4.61463123540859       -0.50568702359329
H           -4.68845193648991        4.90467447827572        0.70702807800458
H           -0.95954722492567        2.89793623175111        2.73239790648294

          :  Hamiltonian                  GFN2-xTB          :
         :: total energy             -99.339604534861 Eh    ::
         :: gradient norm              0.007598474847 Eh/a0 ::
         :: HOMO-LUMO gap              1.156417283165 eV    ::
         :: SCC energy              -100.702998868486 Eh    ::
         :: -> dispersion             -0.075109550281 Eh    ::
         :: repulsion energy           1.362116220285 Eh    ::

    * Orbital Energies and Occupations

         #    Occupation            Energy/Eh            Energy/eV
      -------------------------------------------------------------
         1        2.0000           -0.8485919             -23.0914
       ...           ...                  ...                  ...
        78        1.9992           -0.5302276             -14.4282
        79        1.9987           -0.5224854             -14.2176
        80        1.9986           -0.5219377             -14.2026
        81        1.9985           -0.5210155             -14.1776
        82        1.9980           -0.5157687             -14.0348
        83        1.9968           -0.5085912             -13.8395
        84        1.9962           -0.5059505             -13.7676
        85        1.9955           -0.5030448             -13.6885
        86        1.9842           -0.4831170             -13.1463
        87        1.9823           -0.4813119             -13.0972
        88        1.9493           -0.4644294             -12.6378
        89        1.8944           -0.4523370             -12.3087
        90        1.6097           -0.4290677             -11.6755 (HOMO)
        91        0.4396           -0.3865701             -10.5191 (LUMO)
        92        0.1355           -0.3651125              -9.9352
        93        0.0177           -0.3319332              -9.0324
        94        0.0042           -0.3090510              -8.4097
        95        0.0034           -0.3058300              -8.3221
        96        0.0033           -0.3051780              -8.3043
        97        0.0000           -0.2266988              -6.1688
        98        0.0000           -0.1830948              -4.9823
        99                         -0.1311757              -3.5695
       100                         -0.0735951              -2.0026
       101                         -0.0616643              -1.6780
       ...                                ...                  ...
       171                          0.5803775              15.7929
      -------------------------------------------------------------
                  HL-Gap            0.0424976 Eh            1.1564 eV

     #   Z          covCN         q      C6AA      α(0)
     1   7 N        1.773    -0.273    27.909     7.823
     2   6 C        2.826     0.101    25.761     8.317
     3   6 C        3.907     0.006    20.416     6.422
     4   6 C        2.974     0.002    27.983     8.677
     5   6 C        2.921    -0.080    30.000     8.982
     6   6 C        2.863     0.128    25.184     8.226
     7   8 O        1.706    -0.234    17.871     5.708
     8   6 C        3.644     0.029    20.426     6.496
     9   6 C        2.864     0.127    25.210     8.230
    10   8 O        1.706    -0.233    17.856     5.705
    11   6 C        3.645     0.028    20.430     6.496
    12   6 C        2.914    -0.075    29.881     8.964
    13   6 C        2.922    -0.054    29.344     8.883
    14   6 C        3.812    -0.064    21.724     6.634
    15   6 C        3.802    -0.068    21.802     6.648
    16   6 C        2.843     0.002    27.966     8.667
    17   7 N        2.729     0.003    21.204     6.839
    18   6 C        3.756    -0.015    20.899     6.518
    19   6 C        3.809    -0.073    21.880     6.658
    20   6 C        2.956     0.006    27.889     8.662
    21   6 C        2.907    -0.062    29.530     8.911
    22   6 C        3.807    -0.069    21.816     6.649
    23   6 C        2.868     0.084    26.135     8.380
    24   8 O        1.712    -0.069    15.398     5.298
    25   6 C        2.745     0.002    27.951     8.657
    26   6 C        2.849     0.137    25.009     8.196
    27   8 O        1.706    -0.240    17.973     5.724
    28   6 C        3.644     0.028    20.447     6.500
    29   6 C        2.915    -0.095    30.386     9.039
    30   6 C        3.699    -0.068    21.977     6.705
    31   6 C        3.853    -0.007    20.673     6.467
    32   6 C        3.756    -0.118    22.819     6.811
    33   6 C        3.755    -0.118    22.811     6.810
    34   1 H        0.926     0.050     2.314     2.379
    35   1 H        0.924     0.052     2.293     2.368
    36   1 H        0.925     0.079     1.987     2.204
    37   1 H        0.924     0.046     2.373     2.409
    38   1 H        0.924     0.053     2.282     2.363
    39   1 H        0.925     0.079     1.988     2.205
    40   1 H        0.924     0.046     2.372     2.408
    41   1 H        0.926     0.049     2.328     2.386
    42   1 H        0.926     0.036     2.500     2.472
    43   1 H        0.925     0.058     2.219     2.330
    44   1 H        0.924     0.052     2.301     2.372
    45   1 H        0.925     0.065     2.142     2.289
    46   1 H        0.923     0.076     2.023     2.224
    47   1 H        0.922     0.005     2.975     2.697
    48   1 H        0.926     0.065     2.141     2.288
    49   1 H        0.924     0.066     2.131     2.283
    50   1 H        0.924     0.065     2.147     2.291
    51   1 H        0.924     0.054     2.268     2.355
    52   1 H        0.924     0.058     2.226     2.333
    53   1 H        0.926     0.045     2.377     2.411
    54   1 H        0.922     0.071     2.076     2.253
    55   1 H        0.926     0.058     2.226     2.333
    56   1 H        0.924     0.074     2.038     2.232
    57   1 H        0.926     0.087     1.908     2.160
    58   1 H        0.925     0.081     1.974     2.197
    59   1 H        0.924     0.049     2.338     2.391
    60   1 H        0.924     0.052     2.290     2.366
    61   1 H        0.926     0.046     2.369     2.407
    62   1 H        0.924     0.074     2.042     2.235
    63   1 H        0.924     0.078     2.000     2.212
    64   1 H        0.925     0.077     2.009     2.217
    65   1 H        0.924     0.036     2.509     2.477
    66   1 H        0.925     0.068     2.108     2.271
    67   1 H        0.925     0.035     2.521     2.483
    68   1 H        0.925     0.049     2.330     2.387
    69   1 H        0.925     0.059     2.206     2.323
    70   1 H        0.925     0.033     2.545     2.495
    71   1 H        0.925     0.052     2.289     2.366
    72   1 H        0.860     0.153     1.381     1.841

Wiberg/Mayer (AO) data.
largest (>0.10) Wiberg bond orders for each atom

     #   Z sym  total        # sym  WBO       # sym  WBO       # sym  WBO
 ---------------------------------------------------------------------------
     1   7 N    3.038 --     2 C    1.952    72 H    0.943
     2   6 C    3.925 --     1 N    1.952     3 C    0.996    47 H    0.899
     3   6 C    3.978 --     2 C    0.996     4 C    0.968    14 C    0.958
                            31 C    0.944
     4   6 C    3.954 --    13 C    1.419     5 C    1.367     3 C    0.968
     5   6 C    3.965 --     6 C    1.404     4 C    1.367    34 H    0.958
     6   6 C    3.910 --     5 C    1.404     9 C    1.226     7 O    1.095
     7   8 O    2.253 --     6 C    1.095     8 C    0.979
     8   6 C    3.934 --     7 O    0.979    36 H    0.977    35 H    0.974
                            37 H    0.974
     9   6 C    3.907 --    12 C    1.396     6 C    1.226    10 O    1.096
    10   8 O    2.251 --     9 C    1.096    11 C    0.979
    11   6 C    3.934 --    10 O    0.979    39 H    0.977    40 H    0.974
                            38 H    0.974
    12   6 C    3.965 --    13 C    1.401     9 C    1.396    41 H    0.964
    13   6 C    3.959 --     4 C    1.419    12 C    1.401    42 H    0.963
    14   6 C    3.973 --    15 C    0.982    44 H    0.972    43 H    0.969
                             3 C    0.958
    15   6 C    3.987 --    16 C    1.059    14 C    0.982    45 H    0.961
                            46 H    0.929
    16   6 C    3.563 --    17 N    1.376    15 C    1.059    48 H    0.958
    17   7 N    3.456 --    16 C    1.376    30 C    0.999    18 C    0.991
    18   6 C    3.960 --    17 N    0.991    19 C    0.970    50 H    0.968
                            49 H    0.964
    19   6 C    3.977 --    20 C    1.003    51 H    0.973    52 H    0.971
                            18 C    0.970
    20   6 C    3.966 --    21 C    1.664    29 C    1.214    19 C    1.003
    21   6 C    3.840 --    20 C    1.664    22 C    1.039    53 H    0.968
    22   6 C    3.986 --    21 C    1.039    23 C    1.020    56 H    0.931
                            54 H    0.923
    23   6 C    3.769 --    26 C    1.232    24 O    1.176    22 C    1.020
                            25 C    0.224
    24   8 O    2.568 --    25 C    1.279    23 C    1.176
    25   6 C    3.583 --    24 O    1.279    55 H    0.969    57 H    0.968
                            23 C    0.224
    26   6 C    3.898 --    29 C    1.420    23 C    1.232    27 O    1.094
    27   8 O    2.258 --    26 C    1.094    28 C    0.977
    28   6 C    3.933 --    58 H    0.977    27 O    0.977    59 H    0.975
                            60 H    0.975
    29   6 C    3.809 --    26 C    1.420    20 C    1.214    61 H    0.964
    30   6 C    3.959 --    17 N    0.999    64 H    0.978    62 H    0.968
                            63 H    0.962
    31   6 C    3.975 --    33 C    1.009    32 C    1.008    65 H    0.961
                             3 C    0.944
    32   6 C    3.982 --    31 C    1.008    67 H    0.982    68 H    0.982
                            66 H    0.975
    33   6 C    3.985 --    31 C    1.009    70 H    0.983    71 H    0.981
                            69 H    0.977
    34   1 H    0.996 --     5 C    0.958
    35   1 H    0.994 --     8 C    0.974
    36   1 H    0.993 --     8 C    0.977
    37   1 H    0.995 --     8 C    0.974
    38   1 H    0.994 --    11 C    0.974
    39   1 H    0.993 --    11 C    0.977
    40   1 H    0.994 --    11 C    0.974
    41   1 H    0.996 --    12 C    0.964
    42   1 H    0.998 --    13 C    0.963
    43   1 H    0.995 --    14 C    0.969
    44   1 H    0.996 --    14 C    0.972
    45   1 H    0.995 --    15 C    0.961
    46   1 H    0.969 --    15 C    0.929
    47   1 H    0.989 --     2 C    0.899
    48   1 H    0.995 --    16 C    0.958
    49   1 H    0.991 --    18 C    0.964
    50   1 H    0.995 --    18 C    0.968
    51   1 H    0.996 --    19 C    0.973
    52   1 H    0.996 --    19 C    0.971
    53   1 H    0.998 --    21 C    0.968
    54   1 H    0.968 --    22 C    0.923
    55   1 H    0.997 --    25 C    0.969
    56   1 H    0.972 --    22 C    0.931
    57   1 H    0.992 --    25 C    0.968
    58   1 H    0.993 --    28 C    0.977
    59   1 H    0.995 --    28 C    0.975
    60   1 H    0.995 --    28 C    0.975
    61   1 H    0.997 --    29 C    0.964
    62   1 H    0.985 --    30 C    0.968
    63   1 H    0.986 --    30 C    0.962
    64   1 H    0.994 --    30 C    0.978
    65   1 H    0.994 --    31 C    0.961
    66   1 H    0.992 --    32 C    0.975
    67   1 H    0.997 --    32 C    0.982
    68   1 H    0.995 --    32 C    0.982
    69   1 H    0.994 --    33 C    0.977
    70   1 H    0.998 --    33 C    0.983
    71   1 H    0.995 --    33 C    0.981
    72   1 H    0.972 --     1 N    0.943
 ---------------------------------------------------------------------------

molecular dipole:
                 x           y           z       tot (Debye)
 q only:        2.276       0.054      -0.780
   full:        2.629       0.015      -0.939       7.095

           -------------------------------------------------
          | TOTAL ENERGY              -99.339604534861 Eh   |
          | GRADIENT NORM               0.007598474847 Eh/α |
          | HOMO-LUMO GAP               1.156417283165 eV   |
           -------------------------------------------------

 * finished run on 2024/04/06 at 11:17:04.373
