   * xtb version 6.6.1 (8d0f1dd) compiled by 'conda@1efc2f54142f' on 2023-08-01
          program call               : xtb struc.xyz --opt loose --input .xc1 --gfn2

   ID    Z sym.   atoms
    1    6 C      1, 3, 5-7, 10, 11, 14
    2    7 N      2, 4, 9, 13
    3    8 O      8, 12
    4    1 H      15-25
constraining bond 4 14 to    5.9200000 Å, actual value:    2.9945428 Å

          :  Hamiltonian                  GFN2-xTB          :
 * total energy  :    18.8766184 Eh     change       -0.6650680E-10 Eh
 * total energy  :    -6.2041294 Eh     change       -0.2508075E+02 Eh
 * total energy  :   -21.5231983 Eh     change       -0.1531907E+02 Eh
 * total energy  :   -31.8759525 Eh     change       -0.1035275E+02 Eh
 * total energy  :   -38.7873078 Eh     change       -0.6911355E+01 Eh
 * total energy  :   -41.2195320 Eh     change       -0.2432224E+01 Eh
 * total energy  :   -41.4542124 Eh     change       -0.2346804E+00 Eh
 * total energy  :   -41.5079519 Eh     change       -0.5373948E-01 Eh
 * total energy  :   -41.5533687 Eh     change       -0.4541681E-01 Eh
 * total energy  :   -41.5714644 Eh     change       -0.1809570E-01 Eh
 * total energy  :   -42.0180950 Eh     change       -0.3095415E-02 Eh
 * total energy  :   -42.0191394 Eh     change       -0.1044311E-02 Eh
 * total energy  :   -42.0197126 Eh     change       -0.5731975E-03 Eh
 * total energy  :   -42.0206141 Eh     change       -0.9015578E-03 Eh
 * total energy  :   -42.0211143 Eh     change       -0.5001932E-03 Eh
 * total energy  :   -42.0215577 Eh     change       -0.4433739E-03 Eh
 * total energy  :   -42.0217789 Eh     change       -0.2211833E-03 Eh
 * total energy  :   -42.0218358 Eh     change       -0.5696454E-04 Eh
 * total energy  :   -42.0218585 Eh     change       -0.2263646E-04 Eh
   *** GEOMETRY OPTIMIZATION CONVERGED AFTER 40 ITERATIONS ***

 final structure:
================
25
 xtb: 6.6.1 (8d0f1dd)
C            3.36539127460055        1.44002438920589        0.00400440429493
N            2.57842521980015        0.23498731490431        0.00314202374733
C            3.17935414459421       -1.00037165309680        0.02001078660417
N            2.60655843385406       -2.11830442514401        0.03717146001711
C            0.55300771016072       -0.99195920735962        0.03099856975638
C            1.21504195658435        0.18837731108802        0.01217610035079
C            0.25773434888984        1.32880447717038       -0.00691762319758
O            0.63391081737091        2.47877718054378       -0.03498682956314
N           -1.07843130991539        0.97828637251658        0.00795200034416
C           -2.05725977812856        2.05502658144296        0.00122458565875
C           -1.61006433558316       -0.31188964761142        0.02411276095991
O           -2.78594964755329       -0.54244421421179        0.02681653811537
N           -0.65303569203940       -1.31461814232315        0.03584153348871
C           -3.16902365577726       -3.41587992564056       -0.05287418665638
H            3.88297277115769        1.55314116631593        0.95953773175601
H            4.10973492470715        1.40087653850357       -0.79249051495395
H            2.71615597294689        2.30115461681036       -0.14667736387749
H            4.26315470883851       -0.99998745804741        0.01734696624006
H           -1.52617871648832        3.00507394744566        0.00246536118519
H           -2.68623612663631        1.97526419602044       -0.88601544760661
H           -2.69440176767179        1.97607813486452        0.88263248780898
H           -2.76297355852250       -3.81909395539881        0.85600231063109
H           -2.86721582953600       -3.82043174207138       -1.00009998873425
H           -3.86636721736304       -2.59928630858364       -0.01458060302028
H            1.55612686581801       -2.16336700575005        0.04437855455095

          :  Hamiltonian                  GFN2-xTB          :
         :: total energy             -42.021858465181 Eh    ::
         :: gradient norm              0.002774056153 Eh/a0 ::
         :: HOMO-LUMO gap              0.712455469768 eV    ::
         :: SCC energy               -42.562296482441 Eh    ::
         :: -> dispersion             -0.020893731034 Eh    ::
         :: repulsion energy           0.540394058204 Eh    ::

    * Orbital Energies and Occupations

         #    Occupation            Energy/Eh            Energy/eV
      -------------------------------------------------------------
         1        2.0000           -0.8894284             -24.2026
       ...           ...                  ...                  ...
        25        1.9993           -0.6493991             -17.6710
        26        1.9990           -0.6441179             -17.5273
        27        1.9989           -0.6418470             -17.4655
        28        1.9981           -0.6336241             -17.2418
        29        1.9977           -0.6310446             -17.1716
        30        1.9964           -0.6238094             -16.9747
        31        1.9921           -0.6111905             -16.6313
        32        1.9903           -0.6080530             -16.5460
        33        1.9862           -0.6023314             -16.3903
        34        1.9559           -0.5837224             -15.8839
        35        1.9423           -0.5793805             -15.7657
        36        1.9267           -0.5754406             -15.6585
        37        1.4129           -0.5375953             -14.6287 (HOMO)
        38        0.6307           -0.5114130             -13.9163 (LUMO)
        39        0.1703           -0.4860985             -13.2274
        40        0.0027           -0.4187963             -11.3960
        41        0.0011           -0.4052361             -11.0270
        42        0.0002           -0.3759542             -10.2302
        43        0.0000           -0.2892320              -7.8704
        44                         -0.1903987              -5.1810
        45                         -0.1522416              -4.1427
        46                         -0.0828708              -2.2550
        47                         -0.0449608              -1.2234
        48                         -0.0302893              -0.8242
       ...                                ...                  ...
        67                          0.5733287              15.6011
      -------------------------------------------------------------
                  HL-Gap            0.0261823 Eh            0.7125 eV

     #   Z          covCN         q      C6AA      α(0)
     1   6 C        3.695    -0.086    22.323     6.759
     2   7 N        2.742     0.035    20.643     6.748
     3   6 C        2.812     0.119    25.376     8.253
     4   7 N        1.786    -0.220    26.607     7.640
     5   6 C        2.209     0.088    28.262     8.604
     6   6 C        2.941     0.020    27.554     8.609
     7   6 C        2.795     0.281    22.248     7.727
     8   8 O        0.858    -0.339    20.506     6.071
     9   7 N        2.740    -0.076    22.712     7.078
    10   6 C        3.707    -0.060    21.797     6.674
    11   6 C        2.770     0.345    21.137     7.530
    12   8 O        0.859    -0.323    20.201     6.026
    13   7 N        1.835    -0.187    25.874     7.538
    14   6 C        2.779    -0.065    29.586     8.909
    15   1 H        0.924     0.106     1.729     2.056
    16   1 H        0.924     0.104     1.753     2.071
    17   1 H        0.925     0.133     1.512     1.923
    18   1 H        0.925     0.136     1.491     1.909
    19   1 H        0.925     0.119     1.624     1.993
    20   1 H        0.924     0.108     1.718     2.050
    21   1 H        0.924     0.108     1.716     2.049
    22   1 H        0.926     0.135     1.498     1.914
    23   1 H        0.926     0.135     1.499     1.914
    24   1 H        0.926     0.157     1.343     1.812
    25   1 H        1.038     0.228     0.964     1.534

Wiberg/Mayer (AO) data.
largest (>0.10) Wiberg bond orders for each atom

     #   Z sym  total        # sym  WBO       # sym  WBO       # sym  WBO
 ---------------------------------------------------------------------------
     1   6 C    3.897 --     2 N    0.993    16 H    0.956    17 H    0.950
                            15 H    0.947
     2   7 N    3.490 --     6 C    1.174     3 C    1.153     1 C    0.993
     3   6 C    3.934 --     4 N    1.800     2 N    1.153    18 H    0.912
     4   7 N    2.955 --     3 C    1.800    25 H    0.723     5 C    0.167
     5   6 C    3.734 --    13 N    1.720     6 C    1.391    25 H    0.196
                             4 N    0.167
     6   6 C    3.791 --     5 C    1.391     2 N    1.174     7 C    0.979
     7   6 C    3.933 --     8 O    1.663     9 N    1.154     6 C    0.979
     8   8 O    2.018 --     7 C    1.663     9 N    0.138
     9   7 N    3.536 --     7 C    1.154    11 C    1.087    10 C    0.967
                             8 O    0.138    12 O    0.116
    10   6 C    3.885 --     9 N    0.967    19 H    0.962    21 H    0.956
                            20 H    0.955
    11   6 C    3.921 --    12 O    1.694     9 N    1.087    13 N    1.034
    12   8 O    2.020 --    11 C    1.694     9 N    0.116
    13   7 N    3.078 --     5 C    1.720    11 C    1.034
    14   6 C    2.947 --    22 H    0.979    23 H    0.979    24 H    0.968
    15   1 H    0.965 --     1 C    0.947
    16   1 H    0.972 --     1 C    0.956
    17   1 H    0.977 --     1 C    0.950
    18   1 H    0.967 --     3 C    0.912
    19   1 H    0.981 --    10 C    0.962
    20   1 H    0.975 --    10 C    0.955
    21   1 H    0.975 --    10 C    0.956
    22   1 H    0.980 --    14 C    0.979
    23   1 H    0.980 --    14 C    0.979
    24   1 H    0.973 --    14 C    0.968
    25   1 H    0.946 --     4 N    0.723     5 C    0.196
 ---------------------------------------------------------------------------

molecular dipole:
                 x           y           z       tot (Debye)
 q only:        0.787      -1.233      -0.012
   full:        1.025      -1.017      -0.007       3.671

           -------------------------------------------------
          | TOTAL ENERGY              -42.021858465181 Eh   |
          | GRADIENT NORM               0.002774056153 Eh/α |
          | HOMO-LUMO GAP               0.712455469768 eV   |
           -------------------------------------------------

 * finished run on 2024/06/05 at 20:00:10.150
