   * xtb version 6.6.1 (8d0f1dd) compiled by 'conda@1efc2f54142f' on 2023-08-01
          program call               : xtb struc.xyz --opt loose --input .xc1 --gfn2

   ID    Z sym.   atoms
    1    6 C      1, 3, 5-7, 10, 11, 14
    2    7 N      2, 4, 9, 13
    3    8 O      8, 12
    4    1 H      15-25
constraining bond 11 23 to    3.7133300 Å, actual value:    3.1827480 Å

          :  Hamiltonian                  GFN2-xTB          :
 * total energy  :   -42.7505167 Eh     change       -0.6650680E-10 Eh
 * total energy  :   -44.9377461 Eh     change       -0.2187229E+01 Eh
 * total energy  :   -48.7864553 Eh     change       -0.3848709E+01 Eh
 * total energy  :   -54.4705744 Eh     change       -0.5684119E+01 Eh
 * total energy  :   -58.0751475 Eh     change       -0.3604573E+01 Eh
 * total energy  :   -57.9497520 Eh     change        0.1253955E+00 Eh
 * total energy  :   -58.9030127 Eh     change       -0.9532607E+00 Eh
 * total energy  :   -58.0581838 Eh     change        0.8448288E+00 Eh
 * total energy  :   -59.2927875 Eh     change       -0.1234604E+01 Eh
 * total energy  :   -59.3735159 Eh     change       -0.8072843E-01 Eh
 * total energy  :   -59.7388636 Eh     change       -0.7163140E-04 Eh
 * total energy  :   -59.7389171 Eh     change       -0.5343535E-04 Eh
 * total energy  :   -59.7388615 Eh     change        0.5554389E-04 Eh
 * total energy  :   -59.7389972 Eh     change       -0.1356500E-03 Eh
 * total energy  :   -59.7390072 Eh     change       -0.1002458E-04 Eh
 * total energy  :   -59.7390428 Eh     change       -0.3559850E-04 Eh
 * total energy  :   -59.7387021 Eh     change        0.3407077E-03 Eh
 * total energy  :   -59.7390738 Eh     change       -0.3717477E-03 Eh
 * total energy  :   -59.7390912 Eh     change       -0.1736595E-04 Eh
   *** GEOMETRY OPTIMIZATION CONVERGED AFTER 70 ITERATIONS ***

 final structure:
================
25
 xtb: 6.6.1 (8d0f1dd)
C            2.98953552155701        1.09400355485956       -0.25211772091008
N            2.15469558092151       -0.05652929900725       -0.02728793285704
C            2.59183367349232       -1.29761515231291        0.11898317309478
N            1.55165218322097       -2.12029946657347        0.29554628989185
C            0.38532068813810       -1.38229695183211        0.23190105153582
C            0.77960751760085       -0.06254668615597        0.00478476635240
C           -0.03276872491623        1.18100976423705        0.10232003680443
O            0.43273314124304        2.18412972800695        0.59764840554229
N           -1.32793109955022        1.08124690490974       -0.32878609472167
C           -2.27471517977366        2.11596534388459        0.02542923131267
C           -1.74088416312649        0.02543795412474       -1.25069650342927
O           -2.93849985414741        0.04755529270636       -1.52233672327179
N           -0.87081668090516       -1.85497168108925        0.27442711275547
C           -1.30911420711463       -2.86816662184969        0.90041404138434
H            3.98422812613228        0.91054626302396        0.14686204549143
H            3.06599786861762        1.30060814618931       -1.32100499505884
H            2.54793313404414        1.96126199080546        0.23892958678474
H            3.62185880982115       -1.59869436436767        0.09635576332443
H           -1.82543032574739        2.77628377939057        0.76223217135552
H           -2.55571306038032        2.68573241558630       -0.86098524320841
H           -3.17288225730914        1.64424786676281        0.42380802394834
H           -0.73229813855225       -3.46805246382059        1.60224113622926
H           -1.42823573998349       -0.22794539423738       -1.38542381602441
H           -2.34376132124956       -3.13055258944387        0.74277278466425
H            1.60808602206527       -3.12211979219820        0.41515502690978

          :  Hamiltonian                  GFN2-xTB          :
         :: total energy             -59.739091193359 Eh    ::
         :: gradient norm              0.002585209147 Eh/a0 ::
         :: HOMO-LUMO gap              2.416050639345 eV    ::
         :: SCC energy               -42.701089110217 Eh    ::
         :: -> dispersion             -0.022393773611 Eh    ::
         :: repulsion energy           2.276178784562 Eh    ::

    * Orbital Energies and Occupations

         #    Occupation            Energy/Eh            Energy/eV
      -------------------------------------------------------------
         1        2.0000           -0.9127518             -24.8372
       ...           ...                  ...                  ...
        25        2.0000           -0.6652409             -18.1021
        26        1.9999           -0.6615783             -18.0025
        27        1.9999           -0.6550675             -17.8253
        28        1.9999           -0.6482212             -17.6390
        29        1.9997           -0.6378318             -17.3563
        30        1.9994           -0.6260568             -17.0359
        31        1.9990           -0.6172973             -16.7975
        32        1.9963           -0.5965430             -16.2328
        33        1.9958           -0.5946718             -16.1818
        34        1.9812           -0.5707318             -15.5304
        35        1.9606           -0.5588883             -15.2081
        36        1.9486           -0.5545775             -15.0908
        37        1.9189           -0.5471147             -14.8877 (HOMO)
        38        0.1599           -0.4583264             -12.4717 (LUMO)
        39        0.0341           -0.4328185             -11.7776
        40        0.0062           -0.4055611             -11.0359
        41        0.0006           -0.3685859             -10.0297
        42        0.0000           -0.3224655              -8.7747
        43                         -0.1915579              -5.2126
        44                         -0.1744655              -4.7474
        45                         -0.1367968              -3.7224
        46                         -0.0804707              -2.1897
        47                         -0.0541434              -1.4733
        48                         -0.0454312              -1.2362
       ...                                ...                  ...
        67                         10.6215889             289.0281
      -------------------------------------------------------------
                  HL-Gap            0.0887882 Eh            2.4161 eV

     #   Z          covCN         q      C6AA      α(0)
     1   6 C        3.693    -0.096    22.528     6.791
     2   7 N        2.844     0.089    19.705     6.593
     3   6 C        3.030     0.061    26.599     8.460
     4   7 N        2.802    -0.060    22.401     7.030
     5   6 C        3.019     0.122    25.299     8.251
     6   6 C        3.090    -0.016    28.299     8.720
     7   6 C        2.762     0.273    22.378     7.747
     8   8 O        0.859    -0.358    20.862     6.124
     9   7 N        2.740    -0.088    22.948     7.115
    10   6 C        3.696    -0.061    21.854     6.687
    11   6 C        2.703     0.191    23.919     8.005
    12   8 O        0.867    -0.302    19.807     5.967
    13   7 N        1.825    -0.159    25.235     7.444
    14   6 C        2.792     0.038    27.132     8.533
    15   1 H        0.925     0.103     1.756     2.073
    16   1 H        0.924     0.109     1.705     2.042
    17   1 H        0.925     0.142     1.448     1.882
    18   1 H        0.926     0.125     1.575     1.962
    19   1 H        0.925     0.104     1.752     2.070
    20   1 H        0.924     0.101     1.779     2.086
    21   1 H        0.925     0.105     1.743     2.065
    22   1 H        0.925     0.069     2.096     2.264
    23   1 H        0.946     0.164     1.298     1.781
    24   1 H        0.926     0.118     1.631     1.997
    25   1 H        0.860     0.227     0.977     1.548

Wiberg/Mayer (AO) data.
largest (>0.10) Wiberg bond orders for each atom

     #   Z sym  total        # sym  WBO       # sym  WBO       # sym  WBO
 ---------------------------------------------------------------------------
     1   6 C    3.913 --     2 N    0.985    15 H    0.971    16 H    0.953
                            17 H    0.950
     2   7 N    3.712 --     3 C    1.393     6 C    1.186     1 C    0.985
     3   6 C    3.906 --     2 N    1.393     4 N    1.322    18 H    0.950
     4   7 N    3.596 --     3 C    1.322     5 C    1.147    25 H    0.920
     5   6 C    3.917 --     6 C    1.375    13 N    1.212     4 N    1.147
     6   6 C    3.881 --     5 C    1.375     2 N    1.186     7 C    0.996
     7   6 C    3.940 --     8 O    1.687     9 N    1.170     6 C    0.996
     8   8 O    2.020 --     7 C    1.687     9 N    0.142
     9   7 N    3.530 --     7 C    1.170    11 C    1.044    10 C    0.986
                            12 O    0.150     8 O    0.142
    10   6 C    3.911 --     9 N    0.986    19 H    0.969    21 H    0.955
                            20 H    0.954
    11   6 C    3.904 --    12 O    1.823     9 N    1.044    23 H    0.956
    12   8 O    2.061 --    11 C    1.823     9 N    0.150
    13   7 N    3.159 --    14 C    1.780     5 C    1.212
    14   6 C    3.805 --    13 N    1.780    24 H    0.956    22 H    0.949
    15   1 H    0.988 --     1 C    0.971
    16   1 H    0.986 --     1 C    0.953
    17   1 H    0.979 --     1 C    0.950
    18   1 H    0.984 --     3 C    0.950
    19   1 H    0.986 --    10 C    0.969
    20   1 H    0.976 --    10 C    0.954
    21   1 H    0.977 --    10 C    0.955
    22   1 H    0.984 --    14 C    0.949
    23   1 H    0.969 --    11 C    0.956
    24   1 H    0.981 --    14 C    0.956
    25   1 H    0.948 --     4 N    0.920
 ---------------------------------------------------------------------------

molecular dipole:
                 x           y           z       tot (Debye)
 q only:        2.500      -1.980       0.210
   full:        2.939      -2.608       0.381      10.035

           -------------------------------------------------
          | TOTAL ENERGY              -59.739091193359 Eh   |
          | GRADIENT NORM               0.002585209147 Eh/α |
          | HOMO-LUMO GAP               2.416050639345 eV   |
           -------------------------------------------------

 * finished run on 2024/06/05 at 19:58:09.288
