   * xtb version 6.6.1 (8d0f1dd) compiled by 'conda@1efc2f54142f' on 2023-08-01
          program call               : xtb struc.xyz --opt loose --input .xc1 --gfn2

   ID    Z sym.   atoms
    1    6 C      1, 3, 5-7, 10, 11, 14
    2    7 N      2, 4, 9, 13
    3    8 O      8, 12
    4    1 H      15-25
constraining bond 6 25 to    5.1400000 Å, actual value:    3.1881491 Å

          :  Hamiltonian                  GFN2-xTB          :
 * total energy  :   -28.6430973 Eh     change       -0.6650680E-10 Eh
 * total energy  :   -35.5014809 Eh     change       -0.6858384E+01 Eh
 * total energy  :   -39.4503300 Eh     change       -0.3948849E+01 Eh
 * total energy  :   -41.3200415 Eh     change       -0.1869712E+01 Eh
 * total energy  :   -41.8267376 Eh     change       -0.5066962E+00 Eh
 * total energy  :   -41.8611265 Eh     change       -0.3438886E-01 Eh
 * total energy  :   -41.8754580 Eh     change       -0.1433151E-01 Eh
 * total energy  :   -41.9017298 Eh     change       -0.2627178E-01 Eh
 * total energy  :   -41.9140081 Eh     change       -0.1227832E-01 Eh
 * total energy  :   -41.9318480 Eh     change       -0.1783993E-01 Eh
 * total energy  :   -42.1169813 Eh     change       -0.6206096E-02 Eh
 * total energy  :   -42.1217092 Eh     change       -0.4727919E-02 Eh
 * total energy  :   -42.1238868 Eh     change       -0.2177598E-02 Eh
 * total energy  :   -42.1251983 Eh     change       -0.1311514E-02 Eh
 * total energy  :   -42.1304681 Eh     change       -0.5269728E-02 Eh
 * total energy  :   -42.1320470 Eh     change       -0.1578988E-02 Eh
 * total energy  :   -42.1322604 Eh     change       -0.2133073E-03 Eh
 * total energy  :   -42.1323619 Eh     change       -0.1015079E-03 Eh
 * total energy  :   -42.1323827 Eh     change       -0.2082269E-04 Eh
   *** GEOMETRY OPTIMIZATION CONVERGED AFTER 26 ITERATIONS ***

 final structure:
================
25
 xtb: 6.6.1 (8d0f1dd)
C            3.22036083733797        1.20224675237895        0.02176421033385
N            2.23421556639430        0.15930778844252        0.00494645493367
C            2.45869161763399       -1.17637309341473        0.00026255101997
N            1.35222526979051       -1.88484971591850        0.00110232527315
C            0.34670481747665       -0.98346363327416        0.00820182413288
C            0.88181479448719        0.31580532656164        0.01154293938120
C            0.04145532675043        1.48886785208657       -0.00120951231014
O            0.42552977211547        2.63661359596594       -0.01788030270628
N           -1.31155989428220        1.14884666433592        0.00345604936973
C           -2.27958892680578        2.23112593169915       -0.00578104845245
C           -1.86176218785803       -0.12742005261368        0.00866141840758
O           -3.05312774076043       -0.29649680733612        0.01105235051462
N           -0.97872379766680       -1.21243489859209        0.00977519595371
C           -1.50049371999094       -2.55724938962657        0.00458867701872
H            3.72029587240350        1.23448462724036        0.99230716146426
H            3.97058158311311        1.02231300932679       -0.74896272927879
H            2.73113104839010        2.16017177907291       -0.15508316615021
H            3.44091950743387       -1.60709871571967       -0.00395113626044
H           -1.74075282247494        3.17612375507254       -0.00094587269795
H           -2.91029032377813        2.15843159960399       -0.89355925427742
H           -2.92700139200209        2.15738816238837        0.86971602790534
H           -1.13793434163814       -3.09619218010882        0.88108020557848
H           -1.16016977883131       -3.08158805077233       -0.88966475126812
H           -2.58840659175476       -2.50775254226096        0.01774413793541
H            1.78631701861638       -4.74256922293792       -0.09799213792083

          :  Hamiltonian                  GFN2-xTB          :
         :: total energy             -42.132382687411 Eh    ::
         :: gradient norm              0.001491593213 Eh/a0 ::
         :: HOMO-LUMO gap              0.708921127031 eV    ::
         :: SCC energy               -42.643583749085 Eh    ::
         :: -> dispersion             -0.022474213874 Eh    ::
         :: repulsion energy           0.511107443190 Eh    ::

    * Orbital Energies and Occupations

         #    Occupation            Energy/Eh            Energy/eV
      -------------------------------------------------------------
         1        2.0000           -0.8927793             -24.2938
       ...           ...                  ...                  ...
        25        1.9995           -0.6670074             -18.1502
        26        1.9991           -0.6571616             -17.8823
        27        1.9983           -0.6457623             -17.5721
        28        1.9976           -0.6406201             -17.4322
        29        1.9946           -0.6279985             -17.0887
        30        1.9891           -0.6166968             -16.7812
        31        1.9873           -0.6142313             -16.7141
        32        1.9779           -0.6054722             -16.4757
        33        1.9648           -0.5979516             -16.2711
        34        1.9181           -0.5842111             -15.8972
        35        1.8835           -0.5783412             -15.7375
        36        1.8804           -0.5778996             -15.7254
        37        1.5744           -0.5549916             -15.1021 (HOMO)
        38        0.8330           -0.5289393             -14.3932 (LUMO)
        39        0.0030           -0.4311842             -11.7331
        40        0.0002           -0.3896399             -10.6026
        41        0.0001           -0.3738992             -10.1743
        42        0.0000           -0.2951344              -8.0310
        43                         -0.2060213              -5.6061
        44                         -0.1582923              -4.3074
        45                         -0.1375551              -3.7431
        46                         -0.0793272              -2.1586
        47                         -0.0584044              -1.5893
        48                         -0.0384794              -1.0471
       ...                                ...                  ...
        67                          0.5348383              14.5537
      -------------------------------------------------------------
                  HL-Gap            0.0260524 Eh            0.7089 eV

     #   Z          covCN         q      C6AA      α(0)
     1   6 C        3.689    -0.082    22.267     6.754
     2   7 N        2.830     0.052    20.333     6.697
     3   6 C        3.185     0.097    25.416     8.227
     4   7 N        1.897    -0.209    26.373     7.614
     5   6 C        3.168     0.133    24.757     8.130
     6   6 C        3.116    -0.007    28.025     8.671
     7   6 C        2.763     0.274    22.372     7.746
     8   8 O        0.858    -0.330    20.336     6.046
     9   7 N        2.746    -0.069    22.570     7.056
    10   6 C        3.709    -0.062    21.842     6.680
    11   6 C        2.728     0.317    21.615     7.611
    12   8 O        0.860    -0.331    20.342     6.047
    13   7 N        2.739    -0.018    21.607     6.904
    14   6 C        3.700    -0.073    22.060     6.717
    15   1 H        0.924     0.110     1.696     2.037
    16   1 H        0.924     0.107     1.721     2.052
    17   1 H        0.925     0.126     1.568     1.958
    18   1 H        0.926     0.110     1.700     2.039
    19   1 H        0.925     0.123     1.592     1.973
    20   1 H        0.924     0.115     1.652     2.010
    21   1 H        0.924     0.116     1.649     2.008
    22   1 H        0.924     0.111     1.685     2.030
    23   1 H        0.924     0.111     1.687     2.031
    24   1 H        0.925     0.128     1.554     1.949
    25   1 H        0.000     0.151     3.449     3.396

Wiberg/Mayer (AO) data.
largest (>0.10) Wiberg bond orders for each atom

     #   Z sym  total        # sym  WBO       # sym  WBO       # sym  WBO
 ---------------------------------------------------------------------------
     1   6 C    3.904 --     2 N    0.995    17 H    0.960    16 H    0.957
                            15 H    0.947
     2   7 N    3.637 --     3 C    1.268     6 C    1.218     1 C    0.995
     3   6 C    3.868 --     4 N    1.487     2 N    1.268    18 H    0.954
     4   7 N    2.972 --     3 C    1.487     5 C    1.267
     5   6 C    3.899 --     4 N    1.267     6 C    1.254    13 N    1.209
     6   6 C    3.797 --     5 C    1.254     2 N    1.218     7 C    1.075
     7   6 C    3.946 --     8 O    1.674     9 N    1.100     6 C    1.075
     8   8 O    1.961 --     7 C    1.674     9 N    0.127
     9   7 N    3.501 --    11 C    1.107     7 C    1.100    10 C    0.979
                             8 O    0.127    12 O    0.117
    10   6 C    3.868 --     9 N    0.979    19 H    0.960    21 H    0.943
                            20 H    0.943
    11   6 C    3.951 --    12 O    1.684     9 N    1.107    13 N    1.069
    12   8 O    1.973 --    11 C    1.684     9 N    0.117    13 N    0.101
    13   7 N    3.483 --     5 C    1.209    11 C    1.069    14 C    0.983
                            12 O    0.101
    14   6 C    3.887 --    13 N    0.983    24 H    0.962    22 H    0.949
                            23 H    0.948
    15   1 H    0.974 --     1 C    0.947
    16   1 H    0.978 --     1 C    0.957
    17   1 H    0.978 --     1 C    0.960
    18   1 H    0.986 --     3 C    0.954
    19   1 H    0.978 --    10 C    0.960
    20   1 H    0.960 --    10 C    0.943
    21   1 H    0.961 --    10 C    0.943
    22   1 H    0.965 --    14 C    0.949
    23   1 H    0.964 --    14 C    0.948
    24   1 H    0.980 --    14 C    0.962
    25   1 H    0.017
 ---------------------------------------------------------------------------

molecular dipole:
                 x           y           z       tot (Debye)
 q only:        1.606      -1.616      -0.006
   full:        1.878      -1.494       0.001       6.099

           -------------------------------------------------
          | TOTAL ENERGY              -42.132382687411 Eh   |
          | GRADIENT NORM               0.001491593213 Eh/α |
          | HOMO-LUMO GAP               0.708921127031 eV   |
           -------------------------------------------------

 * finished run on 2024/06/05 at 19:59:14.060
