   * xtb version 6.6.1 (8d0f1dd) compiled by 'conda@1efc2f54142f' on 2023-08-01
          program call               : xtb xtbopt.xyz --opt crude --input .xc2 --gfn2

   ID    Z sym.   atoms
    1    7 N      1, 17
    2    6 C      2-6, 8, 9, 11-16, 18-23, 25, 26, 28-33
    3    8 O      7, 10, 24, 27
    4    1 H      34-72

          :  Hamiltonian                  GFN2-xTB          :
 * total energy  :   -99.3809174 Eh     change       -0.2913225E-11 Eh
   *** GEOMETRY OPTIMIZATION CONVERGED AFTER 1 ITERATIONS ***

 final structure:
================
72
 xtb: 6.6.1 (8d0f1dd)
N           -2.22017340146470        2.73452225073813        1.76453585933287
C           -1.92822821456305        2.75913147913587        0.43190143342940
C           -2.31456929600604        1.85329273179840       -0.49503816270553
C           -3.09913120494566        0.66451008745452       -0.15723761660079
C           -4.13678097241120        0.22367641720947       -0.98961446599742
C           -4.88886153018655       -0.89287448589169       -0.67669101919536
O           -5.91759668773565       -1.37304561412783       -1.40796316290043
C           -6.30154702675601       -0.70039096072603       -2.58306078212291
C           -4.59639301131894       -1.63003957381165        0.50253415577790
O           -5.38073551226965       -2.70530447984965        0.72070496037232
C           -5.17847306839143       -3.47967639032489        1.87963046427855
C           -3.55459603917459       -1.20645967092621        1.31277486840441
C           -2.81800510465096       -0.07732187877933        0.98937879922987
C           -1.92364329623066        2.05556269384860       -1.93282046183502
C           -1.02417601389664        0.90623055145675       -2.45530772448083
C            0.29664274406434        0.93116415113744       -1.80056408576529
N            0.78395401362308        0.00462910386771       -0.98933176712872
C            2.13548165120959        0.11952781967667       -0.49558958173377
C            3.13497300166758       -0.63780333718382       -1.39295694983000
C            4.54292254501609       -0.38201359276749       -0.93416431705794
C            5.19827284230414        0.78137389292176       -1.30326205097341
C            6.48769687452757        1.04001871201666       -0.86527713462031
C            7.14901271033299        0.13672501222919       -0.04628729188083
O            8.39867894918513        0.28274571242187        0.43630471681735
C            9.13342159896713        1.43560530790022        0.09637165257185
C            6.48623540845969       -1.06110305297931        0.33544025992360
O            7.20508429921169       -1.88759924305625        1.12342906848111
C            6.65025926323239       -3.12016526435418        1.51475060959055
C            5.19452152650619       -1.29504448253112       -0.10911802739450
C            0.08691796355856       -1.23231390124598       -0.73148467335159
C           -5.67715758172704        2.18376797531079        1.83738858600902
C           -5.26605897013476        1.56367447266263        2.93098420813937
C           -5.54109756345372        3.64736871003759        1.59287009974972
H           -4.37717314568665        0.79171291817394       -1.87305518424572
H           -6.61938051292128        0.32680600938350       -2.37457791445474
H           -7.14472100668323       -1.26304741946472       -2.97929536378956
H           -5.49494716408874       -0.69078645972089       -3.32387130538774
H           -5.33782349672263       -2.89198621688858        2.78847985404612
H           -5.91920826903122       -4.27596321944235        1.83156038430482
H           -4.17578585130376       -3.91861305658287        1.89957380765346
H           -3.30544968075213       -1.75318979196086        2.20763188523293
H           -1.99636315530387        0.20975996818586        1.62715713729160
H           -2.81028813826486        2.09588612589980       -2.56691296448229
H           -1.39544065148465        3.00274184953000       -2.04323070377238
H           -1.53725134315355       -0.04282761165736       -2.31392950050676
H           -0.88190753631338        1.06761826468375       -3.52866804060445
H           -1.31539695258914        3.59656168519544        0.12434395547725
H            0.90333041441077        1.81155417905455       -1.94461369759503
H            2.18159298387816       -0.27726291545118        0.52110089384050
H            2.41804434929822        1.17350738868719       -0.46298423800543
H            3.01099475894159       -0.28639917556271       -2.41946529001430
H            2.91679737889580       -1.70588182628335       -1.36530244423696
H            4.71006998633510        1.49439952173804       -1.95033365162668
H            6.97357158114357        1.95066226962793       -1.17490805848731
H            8.63994426621670        2.34509963971124        0.45291183057021
H            9.29252489028588        1.50529440288141       -0.98395854597782
H           10.09418273007234        1.32739420027316        0.59602080199255
H            7.41940500691567       -3.61107395244303        2.10773369236728
H            5.75474730470585       -2.98126578700695        2.12910560692329
H            6.40772480342454       -3.74427482636089        0.64901584493874
H            4.68446482402502       -2.20274048001103        0.17287968553590
H            0.01269239718952       -1.84126568997006       -1.63575226185877
H           -0.91990746997081       -1.03192888558368       -0.35909489441236
H            0.62766851570502       -1.79814402931404        0.02269560019317
H           -6.14856143728777        1.62043115407249        1.04322143468921
H           -2.99589937036933        2.15246316847642        2.05090069896109
H           -5.39991056953007        0.50516211689647        3.06356209238346
H           -4.81428696608199        2.09357898860392        3.75461602992692
H           -5.09087205745643        4.15066269471483        2.44673213515912
H           -4.92996003526677        3.82911982998285        0.70714913629249
H           -6.51966228633859        4.08628974712611        1.40570724206136
H           -2.12789439449758        3.60171358940508        2.26588868593927

          :  Hamiltonian                  GFN2-xTB          :
         :: total energy             -99.380917446808 Eh    ::
         :: gradient norm              0.003219518069 Eh/a0 ::
         :: HOMO-LUMO gap              1.508082970945 eV    ::
         :: SCC energy              -100.808904161289 Eh    ::
         :: -> dispersion             -0.072305993206 Eh    ::
         :: repulsion energy           1.426574939142 Eh    ::

    * Orbital Energies and Occupations

         #    Occupation            Energy/Eh            Energy/eV
      -------------------------------------------------------------
         1        2.0000           -0.8025452             -21.8384
       ...           ...                  ...                  ...
        78        1.9991           -0.5285415             -14.3823
        79        1.9989           -0.5256230             -14.3029
        80        1.9986           -0.5214291             -14.1888
        81        1.9986           -0.5211816             -14.1821
        82        1.9979           -0.5153352             -14.0230
        83        1.9976           -0.5130173             -13.9599
        84        1.9975           -0.5124572             -13.9447
        85        1.9885           -0.4882197             -13.2851
        86        1.9826           -0.4815933             -13.1048
        87        1.9821           -0.4811390             -13.0925
        88        1.9462           -0.4634415             -12.6109
        89        1.8683           -0.4486238             -12.2077
        90        1.8003           -0.4414414             -12.0122 (HOMO)
        91        0.4278           -0.3860203             -10.5041 (LUMO)
        92        0.0102           -0.3230833              -8.7915
        93        0.0039           -0.3079972              -8.3810
        94        0.0032           -0.3046548              -8.2901
        95        0.0028           -0.3026417              -8.2353
        96        0.0008           -0.2834986              -7.7144
        97        0.0003           -0.2667723              -7.2592
        98        0.0000           -0.1797138              -4.8903
        99        0.0000           -0.1774893              -4.8297
       100                         -0.1234069              -3.3581
       101                         -0.0621842              -1.6921
       ...                                ...                  ...
       171                          0.5889378              16.0258
      -------------------------------------------------------------
                  HL-Gap            0.0554210 Eh            1.5081 eV

     #   Z          covCN         q      C6AA      α(0)
     1   7 N        2.634    -0.246    26.418     7.634
     2   6 C        2.828     0.022    27.499     8.593
     3   6 C        2.951    -0.040    28.987     8.831
     4   6 C        2.971    -0.001    28.052     8.688
     5   6 C        2.920    -0.081    30.030     8.986
     6   6 C        2.862     0.129    25.171     8.224
     7   8 O        1.706    -0.235    17.897     5.712
     8   6 C        3.644     0.030    20.404     6.493
     9   6 C        2.864     0.129    25.179     8.225
    10   8 O        1.706    -0.231    17.833     5.702
    11   6 C        3.645     0.029    20.424     6.495
    12   6 C        2.912    -0.074    29.837     8.957
    13   6 C        2.923    -0.061    29.527     8.911
    14   6 C        3.811    -0.064    21.711     6.632
    15   6 C        3.803    -0.067    21.784     6.645
    16   6 C        2.848     0.003    27.946     8.664
    17   7 N        2.729     0.022    20.859     6.783
    18   6 C        3.758    -0.020    20.990     6.532
    19   6 C        3.808    -0.070    21.836     6.652
    20   6 C        2.969    -0.001    28.054     8.688
    21   6 C        2.922    -0.050    29.250     8.869
    22   6 C        2.914    -0.068    29.704     8.937
    23   6 C        2.865     0.132    25.112     8.214
    24   8 O        1.706    -0.226    17.748     5.688
    25   6 C        3.645     0.026    20.465     6.502
    26   6 C        2.863     0.132    25.114     8.214
    27   8 O        1.706    -0.228    17.784     5.694
    28   6 C        3.645     0.028    20.438     6.498
    29   6 C        2.919    -0.080    29.989     8.980
    30   6 C        3.700    -0.074    22.086     6.721
    31   6 C        2.884    -0.022    28.549     8.760
    32   6 C        2.837    -0.101    30.523     9.054
    33   6 C        3.756    -0.108    22.622     6.782
    34   1 H        0.926     0.047     2.359     2.402
    35   1 H        0.924     0.049     2.333     2.389
    36   1 H        0.925     0.078     1.995     2.209
    37   1 H        0.924     0.046     2.373     2.409
    38   1 H        0.924     0.051     2.309     2.376
    39   1 H        0.925     0.079     1.988     2.205
    40   1 H        0.924     0.048     2.343     2.394
    41   1 H        0.926     0.048     2.348     2.396
    42   1 H        0.926     0.043     2.407     2.426
    43   1 H        0.924     0.060     2.194     2.316
    44   1 H        0.925     0.047     2.354     2.399
    45   1 H        0.925     0.064     2.157     2.297
    46   1 H        0.924     0.075     2.035     2.231
    47   1 H        0.925     0.041     2.438     2.442
    48   1 H        0.926     0.068     2.110     2.271
    49   1 H        0.924     0.069     2.097     2.265
    50   1 H        0.924     0.070     2.085     2.258
    51   1 H        0.924     0.055     2.263     2.353
    52   1 H        0.924     0.054     2.269     2.356
    53   1 H        0.926     0.042     2.421     2.433
    54   1 H        0.926     0.056     2.246     2.344
    55   1 H        0.924     0.052     2.296     2.369
    56   1 H        0.924     0.054     2.272     2.357
    57   1 H        0.925     0.080     1.976     2.198
    58   1 H        0.925     0.080     1.979     2.200
    59   1 H        0.924     0.048     2.351     2.398
    60   1 H        0.924     0.051     2.308     2.376
    61   1 H        0.926     0.047     2.361     2.403
    62   1 H        0.924     0.076     2.023     2.224
    63   1 H        0.924     0.085     1.926     2.170
    64   1 H        0.925     0.078     1.995     2.209
    65   1 H        0.925     0.034     2.525     2.485
    66   1 H        0.860     0.188     1.169     1.693
    67   1 H        0.926     0.036     2.502     2.473
    68   1 H        0.926     0.040     2.444     2.445
    69   1 H        0.925     0.045     2.389     2.417
    70   1 H        0.924     0.044     2.392     2.418
    71   1 H        0.925     0.060     2.203     2.321
    72   1 H        0.860     0.178     1.223     1.733

Wiberg/Mayer (AO) data.
largest (>0.10) Wiberg bond orders for each atom

     #   Z sym  total        # sym  WBO       # sym  WBO       # sym  WBO
 ---------------------------------------------------------------------------
     1   7 N    3.265 --     2 C    1.223    72 H    0.951    66 H    0.926
                             3 C    0.106
     2   6 C    3.918 --     3 C    1.629     1 N    1.223    47 H    0.961
     3   6 C    3.891 --     2 C    1.629     4 C    1.079    14 C    1.011
                             1 N    0.106
     4   6 C    3.955 --    13 C    1.369     5 C    1.337     3 C    1.079
     5   6 C    3.956 --     6 C    1.416     4 C    1.337    34 H    0.959
     6   6 C    3.910 --     5 C    1.416     9 C    1.220     7 O    1.093
     7   8 O    2.253 --     6 C    1.093     8 C    0.980
     8   6 C    3.935 --     7 O    0.980    36 H    0.977    37 H    0.974
                            35 H    0.974
     9   6 C    3.893 --    12 C    1.386     6 C    1.220    10 O    1.099
    10   8 O    2.249 --     9 C    1.099    11 C    0.979
    11   6 C    3.934 --    10 O    0.979    39 H    0.977    38 H    0.974
                            40 H    0.974
    12   6 C    3.965 --    13 C    1.417     9 C    1.386    41 H    0.964
    13   6 C    3.944 --    12 C    1.417     4 C    1.369    42 H    0.966
    14   6 C    3.963 --     3 C    1.011    44 H    0.974    43 H    0.956
                            15 C    0.948
    15   6 C    3.984 --    16 C    1.067    45 H    0.968    14 C    0.948
                            46 H    0.942
    16   6 C    3.559 --    17 N    1.418    15 C    1.067    48 H    0.959
    17   7 N    3.478 --    16 C    1.418    30 C    0.998    18 C    0.989
    18   6 C    3.956 --    17 N    0.989    50 H    0.967    19 C    0.966
                            49 H    0.965
    19   6 C    3.976 --    20 C    1.008    52 H    0.973    51 H    0.970
                            18 C    0.966
    20   6 C    3.950 --    21 C    1.411    29 C    1.381    19 C    1.008
    21   6 C    3.954 --    22 C    1.417    20 C    1.411    53 H    0.968
    22   6 C    3.963 --    21 C    1.417    23 C    1.386    54 H    0.963
    23   6 C    3.900 --    22 C    1.386    26 C    1.225    24 O    1.105
    24   8 O    2.254 --    23 C    1.105    25 C    0.977
    25   6 C    3.931 --    24 O    0.977    57 H    0.977    55 H    0.973
                            56 H    0.973
    26   6 C    3.904 --    29 C    1.396    23 C    1.225    27 O    1.099
    27   8 O    2.254 --    26 C    1.099    28 C    0.979
    28   6 C    3.934 --    27 O    0.979    58 H    0.977    59 H    0.974
                            60 H    0.974
    29   6 C    3.962 --    26 C    1.396    20 C    1.381    61 H    0.962
    30   6 C    3.956 --    17 N    0.998    64 H    0.978    62 H    0.965
                            63 H    0.959
    31   6 C    3.976 --    32 C    1.951    33 C    1.043    65 H    0.966
    32   6 C    3.972 --    31 C    1.951    67 H    0.976    68 H    0.973
    33   6 C    3.993 --    31 C    1.043    69 H    0.984    70 H    0.967
                            71 H    0.966
    34   1 H    0.997 --     5 C    0.959
    35   1 H    0.995 --     8 C    0.974
    36   1 H    0.993 --     8 C    0.977
    37   1 H    0.995 --     8 C    0.974
    38   1 H    0.994 --    11 C    0.974
    39   1 H    0.993 --    11 C    0.977
    40   1 H    0.994 --    11 C    0.974
    41   1 H    0.996 --    12 C    0.964
    42   1 H    0.998 --    13 C    0.966
    43   1 H    0.990 --    14 C    0.956
    44   1 H    0.997 --    14 C    0.974
    45   1 H    0.996 --    15 C    0.968
    46   1 H    0.976 --    15 C    0.942
    47   1 H    0.997 --     2 C    0.961
    48   1 H    0.995 --    16 C    0.959
    49   1 H    0.991 --    18 C    0.965
    50   1 H    0.994 --    18 C    0.967
    51   1 H    0.995 --    19 C    0.970
    52   1 H    0.996 --    19 C    0.973
    53   1 H    0.998 --    21 C    0.968
    54   1 H    0.995 --    22 C    0.963
    55   1 H    0.993 --    25 C    0.973
    56   1 H    0.993 --    25 C    0.973
    57   1 H    0.993 --    25 C    0.977
    58   1 H    0.993 --    28 C    0.977
    59   1 H    0.994 --    28 C    0.974
    60   1 H    0.994 --    28 C    0.974
    61   1 H    0.997 --    29 C    0.962
    62   1 H    0.984 --    30 C    0.965
    63   1 H    0.986 --    30 C    0.959
    64   1 H    0.994 --    30 C    0.978
    65   1 H    0.998 --    31 C    0.966
    66   1 H    0.964 --     1 N    0.926
    67   1 H    0.998 --    32 C    0.976
    68   1 H    0.998 --    32 C    0.973
    69   1 H    0.997 --    33 C    0.984
    70   1 H    0.996 --    33 C    0.967
    71   1 H    0.995 --    33 C    0.966
    72   1 H    0.967 --     1 N    0.951
 ---------------------------------------------------------------------------

molecular dipole:
                 x           y           z       tot (Debye)
 q only:        0.515       0.685      -0.518
   full:        0.276       0.947      -0.586       2.917

           -------------------------------------------------
          | TOTAL ENERGY              -99.380917446808 Eh   |
          | GRADIENT NORM               0.003219518069 Eh/α |
          | HOMO-LUMO GAP               1.508082970945 eV   |
           -------------------------------------------------

 * finished run on 2024/04/06 at 11:12:12.598
