   * xtb version 6.6.1 (8d0f1dd) compiled by 'conda@1efc2f54142f' on 2023-08-01
          program call               : xtb struc.xyz --opt loose --input .xc1 --gfn2

   ID    Z sym.   atoms
    1    6 C      1, 3, 5-7, 10, 11, 14
    2    7 N      2, 4, 9, 13
    3    8 O      8, 12
    4    1 H      15-25
constraining bond 12 21 to    4.6333300 Å, actual value:    2.6132888 Å

          :  Hamiltonian                  GFN2-xTB          :
 * total energy  :   -49.5338409 Eh     change       -0.6650680E-10 Eh
 * total energy  :   -55.8779018 Eh     change       -0.6344061E+01 Eh
 * total energy  :   -64.1203598 Eh     change       -0.8242458E+01 Eh
 * total energy  :   -71.9235514 Eh     change       -0.7803192E+01 Eh
 * total energy  :   -71.1045354 Eh     change        0.8190160E+00 Eh
 * total energy  :   -71.9853886 Eh     change       -0.8808532E+00 Eh
 * total energy  :   -72.0218921 Eh     change       -0.3650348E-01 Eh
 * total energy  :   -72.0686615 Eh     change       -0.4676942E-01 Eh
 * total energy  :   -72.0902891 Eh     change       -0.2162762E-01 Eh
 * total energy  :   -72.1336283 Eh     change       -0.4333919E-01 Eh
 * total energy  :   -72.2205369 Eh     change       -0.3866370E-04 Eh
 * total energy  :   -72.2206000 Eh     change       -0.6301467E-04 Eh
 * total energy  :   -72.2206244 Eh     change       -0.2439959E-04 Eh
 * total energy  :   -72.2206611 Eh     change       -0.3676272E-04 Eh
 * total energy  :   -72.2206891 Eh     change       -0.2801577E-04 Eh
 * total energy  :   -72.2207184 Eh     change       -0.2930353E-04 Eh
 * total energy  :   -72.2204888 Eh     change        0.2296205E-03 Eh
 * total energy  :   -72.2207425 Eh     change       -0.2536474E-03 Eh
 * total energy  :   -72.2207505 Eh     change       -0.8014423E-05 Eh
   *** GEOMETRY OPTIMIZATION CONVERGED AFTER 46 ITERATIONS ***

 final structure:
================
25
 xtb: 6.6.1 (8d0f1dd)
C            3.31163919841864        1.10404745204165       -0.02587852107999
N            2.31242037877789        0.07124667963977       -0.01106664417006
C            2.53268345199712       -1.24951026253803        0.02485627993053
N            1.34497333980387       -1.91235451235253        0.04569336068664
C            0.34510681485232       -0.98441476589509        0.02534590521953
C            0.94457246216204        0.27724604547633       -0.01038888690353
C            0.21311915095497        1.48773777494433       -0.05809223867736
O            0.62042931759477        2.62731281929066       -0.10365336184668
N           -1.24360699914998        1.23622844597130       -0.04714248066161
C           -2.01034686283013        2.33140120603990       -0.09239891140691
C           -1.76896228765583       -0.01650700991178        0.00985168915856
O           -3.10834241250839       -0.18500289526420        0.04752087036966
N           -0.99283459466868       -1.15505311818401        0.03394213671113
C           -1.57964886553434       -2.47929638751713        0.06141447907326
H            3.82663599833735        1.14970409337138        0.93511773495990
H            4.04423568671685        0.90970013861196       -0.80853793689994
H            2.82220758434691        2.05921551209501       -0.20917493821691
H            3.49378412313089       -1.71860395285441        0.03289560627912
H           -1.50650906441702        3.27570789688127       -0.13042589746124
H           -3.07803769296447        2.26895662898449       -0.11792967359119
H           -3.40288337986554        0.07500159250983        0.15129775496104
H           -1.33099268595785       -2.98225626515445        0.99700392683115
H           -1.21272995184862       -3.06575873899283       -0.78136255550331
H           -2.65898567214438       -2.39202175297346       -0.01674690340478
H            1.24250447655159       -2.91448808261980        0.07903082354314

          :  Hamiltonian                  GFN2-xTB          :
         :: total energy             -72.220750483145 Eh    ::
         :: gradient norm              0.003979476358 Eh/a0 ::
         :: HOMO-LUMO gap              1.186739947622 eV    ::
         :: SCC energy               -42.726786283655 Eh    ::
         :: -> dispersion             -0.022961834948 Eh    ::
         :: repulsion energy           2.408560707743 Eh    ::

    * Orbital Energies and Occupations

         #    Occupation            Energy/Eh            Energy/eV
      -------------------------------------------------------------
         1        2.0000           -0.9130490             -24.8453
       ...           ...                  ...                  ...
        25        2.0000           -0.6650277             -18.0963
        26        2.0000           -0.6617907             -18.0082
        27        2.0000           -0.6511877             -17.7197
        28        2.0000           -0.6379703             -17.3601
        29        2.0000           -0.6303174             -17.1518
        30        2.0000           -0.6267249             -17.0541
        31        2.0000           -0.6168479             -16.7853
        32        2.0000           -0.6142130             -16.7136
        33        1.9999           -0.5955671             -16.2062
        34        1.9999           -0.5938722             -16.1601
        35        1.9982           -0.5523009             -15.0289
        36        1.9979           -0.5505793             -14.9820
        37        1.5595           -0.4616443             -12.5620 (HOMO)
        38        0.3678           -0.4180324             -11.3752 (LUMO)
        39        0.0487           -0.3831946             -10.4273
        40        0.0282           -0.3743902             -10.1877
        41        0.0001           -0.2744451              -7.4680
        42        0.0000           -0.2035785              -5.5397
        43        0.0000           -0.1841251              -5.0103
        44                         -0.1590482              -4.3279
        45                         -0.1232137              -3.3528
        46                         -0.0779121              -2.1201
        47                         -0.0390245              -1.0619
        48                         -0.0149967              -0.4081
       ...                                ...                  ...
        67                          5.3346699             145.1638
      -------------------------------------------------------------
                  HL-Gap            0.0436119 Eh            1.1867 eV

     #   Z          covCN         q      C6AA      α(0)
     1   6 C        3.691    -0.090    22.415     6.775
     2   7 N        2.821     0.061    20.183     6.672
     3   6 C        3.027     0.033    27.225     8.559
     4   7 N        2.777    -0.067    22.546     7.052
     5   6 C        3.049     0.086    26.051     8.371
     6   6 C        3.082    -0.027    28.588     8.765
     7   6 C        2.774     0.240    22.981     7.851
     8   8 O        0.857    -0.370    21.088     6.157
     9   7 N        2.736    -0.009    21.430     6.875
    10   6 C        2.812    -0.082    30.050     8.981
    11   6 C        2.803     0.194    23.858     8.002
    12   8 O        1.664    -0.378    20.419     6.100
    13   7 N        2.736    -0.016    21.564     6.897
    14   6 C        3.698    -0.082    22.234     6.744
    15   1 H        0.924     0.099     1.792     2.094
    16   1 H        0.925     0.097     1.812     2.105
    17   1 H        0.925     0.129     1.545     1.944
    18   1 H        0.927     0.112     1.678     2.025
    19   1 H        0.926     0.114     1.665     2.018
    20   1 H        0.927     0.073     2.053     2.241
    21   1 H        0.860     0.369     0.539     1.150
    22   1 H        0.924     0.090     1.879     2.144
    23   1 H        0.924     0.089     1.887     2.148
    24   1 H        0.925     0.117     1.635     2.000
    25   1 H        0.860     0.218     1.019     1.582

Wiberg/Mayer (AO) data.
largest (>0.10) Wiberg bond orders for each atom

     #   Z sym  total        # sym  WBO       # sym  WBO       # sym  WBO
 ---------------------------------------------------------------------------
     1   6 C    3.925 --     2 N    0.990    16 H    0.966    17 H    0.963
                            15 H    0.960
     2   7 N    3.581 --     3 C    1.332     6 C    1.129     1 C    0.990
     3   6 C    3.717 --     2 N    1.332     4 N    1.237    18 H    0.957
     4   7 N    3.525 --     3 C    1.237     5 C    1.183    25 H    0.925
     5   6 C    3.881 --     6 C    1.285    13 N    1.184     4 N    1.183
     6   6 C    3.889 --     5 C    1.285     7 C    1.167     2 N    1.129
     7   6 C    3.842 --     8 O    1.664     6 C    1.167     9 N    0.907
     8   8 O    1.968 --     7 C    1.664     9 N    0.102
     9   7 N    3.665 --    10 C    1.320    11 C    1.202     7 C    0.907
                             8 O    0.102
    10   6 C    3.541 --     9 N    1.320    20 H    0.973    19 H    0.962
                            11 C    0.145
    11   6 C    3.696 --     9 N    1.202    13 N    1.138    12 O    1.097
                            10 C    0.145
    12   8 O    2.127 --    11 C    1.097    21 H    0.856
    13   7 N    3.539 --     5 C    1.184    11 C    1.138    14 C    0.976
    14   6 C    3.929 --    13 N    0.976    23 H    0.970    22 H    0.969
                            24 H    0.969
    15   1 H    0.982 --     1 C    0.960
    16   1 H    0.985 --     1 C    0.966
    17   1 H    0.983 --     1 C    0.963
    18   1 H    0.986 --     3 C    0.957
    19   1 H    0.986 --    10 C    0.962
    20   1 H    0.994 --    10 C    0.973
    21   1 H    0.863 --    12 O    0.856
    22   1 H    0.987 --    14 C    0.969
    23   1 H    0.988 --    14 C    0.970
    24   1 H    0.986 --    14 C    0.969
    25   1 H    0.952 --     4 N    0.925
 ---------------------------------------------------------------------------

molecular dipole:
                 x           y           z       tot (Debye)
 q only:        0.793      -2.356       0.135
   full:        0.566      -2.717       0.203       7.073

           -------------------------------------------------
          | TOTAL ENERGY              -72.220750483145 Eh   |
          | GRADIENT NORM               0.003979476358 Eh/α |
          | HOMO-LUMO GAP               1.186739947622 eV   |
           -------------------------------------------------

 * finished run on 2024/06/05 at 19:58:25.214
