   * xtb version 6.6.1 (8d0f1dd) compiled by 'conda@1efc2f54142f' on 2023-08-01
          program call               : xtb xtbopt.xyz --opt crude --input .xc2 --gfn2

   ID    Z sym.   atoms
    1    6 C      1, 3, 5-7, 10, 11, 14
    2    7 N      2, 4, 9, 13
    3    8 O      8, 12
    4    1 H      15-25
########################################################################
[WARNING] Please study the warnings concerning your input carefully
-1- readin_getIntValue: could not parse ''
########################################################################

          :  Hamiltonian                  GFN2-xTB          :
 * total energy  :   -40.3181188 Eh     change       -0.1151079E-11 Eh
 * total energy  :   -42.1357487 Eh     change       -0.1817630E+01 Eh
 * total energy  :   -42.1657598 Eh     change       -0.3001110E-01 Eh
 * total energy  :   -42.1683659 Eh     change       -0.2606082E-02 Eh
 * total energy  :   -42.1691326 Eh     change       -0.7666400E-03 Eh
 * total energy  :   -42.1698557 Eh     change       -0.7231510E-03 Eh
 * total energy  :   -42.1709241 Eh     change       -0.1068405E-02 Eh
 * total energy  :   -42.1721461 Eh     change       -0.1221987E-02 Eh
 * total energy  :   -42.1730025 Eh     change       -0.8564004E-03 Eh
 * total energy  :   -42.1733505 Eh     change       -0.3480467E-03 Eh
 * total energy  :   -42.1735320 Eh     change       -0.1814262E-03 Eh
 * total energy  :   -42.1737081 Eh     change       -0.1761042E-03 Eh
 * total energy  :   -42.1739635 Eh     change       -0.2553887E-03 Eh
 * total energy  :   -42.1742375 Eh     change       -0.2739975E-03 Eh
 * total energy  :   -42.1744586 Eh     change       -0.2211598E-03 Eh
   *** GEOMETRY OPTIMIZATION CONVERGED AFTER 15 ITERATIONS ***

 final structure:
================
25
 xtb: 6.6.1 (8d0f1dd)
C            3.30431962198092        1.11444179203131        0.01179553127979
N            2.31866362570698        0.06802189503518        0.00706149857663
C            2.54959685898679       -1.25096792707957        0.02339374092213
N            1.36702380515982       -1.92287109952732        0.02290801852954
C            0.35933435771252       -1.00430210319189        0.00931294893802
C            0.94867580861270        0.26212986103992       -0.00344134327525
C            0.20559012197345        1.46692118329079       -0.04653378439609
O            0.60696295228986        2.61004049539966       -0.07187548423008
N           -1.24434090562948        1.20381023310731       -0.08403193159920
C           -2.01369054959836        2.29978989098957       -0.18233479768145
C           -1.75690554973597       -0.04704727705561        0.02612027586958
O           -3.08536314298250       -0.26272843383071        0.07052276685385
N           -0.97783411044127       -1.18238830182643        0.03119260914594
C           -1.56057904440579       -2.50874388965487        0.05357836596016
H            3.88581610074476        1.08528289299442        0.93517377313624
H            3.98280467714821        1.00236060431464       -0.83452930400715
H            2.79142793855179        2.07278808838383       -0.05851428345831
H            3.51346765692116       -1.71483811789997        0.03138601089580
H           -1.50745523174619        3.24310363033999       -0.20434852383033
H           -3.07446586467949        2.23438274150869       -0.32214365828663
H           -3.57613486538599        0.50135798762361        0.40015797163195
H           -1.19675063649301       -3.06208714443167        0.92057167380263
H           -1.30496597176191       -3.04532876028787       -0.86130296768255
H           -2.64119736576671       -2.41888382308423        0.11694020046712
H            1.26643122693760       -2.92600587658856        0.04011231033785

          :  Hamiltonian                  GFN2-xTB          :
         :: total energy             -42.174458620736 Eh    ::
         :: gradient norm              0.007591759958 Eh/a0 ::
         :: HOMO-LUMO gap              1.201187465482 eV    ::
         :: SCC energy               -42.690226007689 Eh    ::
         :: -> dispersion             -0.022939708903 Eh    ::
         :: repulsion energy           0.515660813817 Eh    ::

    * Orbital Energies and Occupations

         #    Occupation            Energy/Eh            Energy/eV
      -------------------------------------------------------------
         1        2.0000           -0.8885316             -24.1782
       ...           ...                  ...                  ...
        25        2.0000           -0.6660106             -18.1231
        26        2.0000           -0.6608576             -17.9829
        27        2.0000           -0.6526318             -17.7590
        28        2.0000           -0.6404884             -17.4286
        29        2.0000           -0.6286771             -17.1072
        30        2.0000           -0.6243388             -16.9891
        31        2.0000           -0.6154697             -16.7478
        32        2.0000           -0.6140744             -16.7098
        33        1.9999           -0.5963922             -16.2287
        34        1.9999           -0.5955611             -16.2060
        35        1.9981           -0.5523688             -15.0307
        36        1.9979           -0.5506800             -14.9848
        37        1.5651           -0.4625634             -12.5870 (HOMO)
        38        0.3626           -0.4184206             -11.3858 (LUMO)
        39        0.0486           -0.3838293             -10.4445
        40        0.0280           -0.3749344             -10.2025
        41        0.0001           -0.2751676              -7.4877
        42        0.0000           -0.2035964              -5.5401
        43        0.0000           -0.1859464              -5.0599
        44                         -0.1577503              -4.2926
        45                         -0.1231183              -3.3502
        46                         -0.1036950              -2.8217
        47                         -0.0481810              -1.3111
        48                         -0.0349860              -0.9520
       ...                                ...                  ...
        67                          0.5532986              15.0560
      -------------------------------------------------------------
                  HL-Gap            0.0441428 Eh            1.2012 eV

     #   Z          covCN         q      C6AA      α(0)
     1   6 C        3.690    -0.090    22.418     6.776
     2   7 N        2.821     0.060    20.191     6.674
     3   6 C        3.027     0.035    27.199     8.555
     4   7 N        2.779    -0.067    22.545     7.052
     5   6 C        3.049     0.086    26.036     8.369
     6   6 C        3.084    -0.027    28.581     8.764
     7   6 C        2.776     0.241    22.963     7.849
     8   8 O        0.857    -0.373    21.150     6.166
     9   7 N        2.736    -0.015    21.541     6.893
    10   6 C        2.810    -0.090    30.243     9.010
    11   6 C        2.752     0.203    23.677     7.968
    12   8 O        1.660    -0.356    20.006     6.038
    13   7 N        2.736    -0.013    21.512     6.889
    14   6 C        3.697    -0.077    22.147     6.731
    15   1 H        0.924     0.098     1.803     2.100
    16   1 H        0.924     0.098     1.807     2.102
    17   1 H        0.925     0.129     1.540     1.941
    18   1 H        0.927     0.112     1.677     2.025
    19   1 H        0.926     0.114     1.662     2.016
    20   1 H        0.926     0.068     2.112     2.272
    21   1 H        0.805     0.349     0.590     1.207
    22   1 H        0.924     0.086     1.921     2.168
    23   1 H        0.924     0.089     1.890     2.150
    24   1 H        0.925     0.122     1.598     1.977
    25   1 H        0.860     0.218     1.018     1.581

Wiberg/Mayer (AO) data.
largest (>0.10) Wiberg bond orders for each atom

     #   Z sym  total        # sym  WBO       # sym  WBO       # sym  WBO
 ---------------------------------------------------------------------------
     1   6 C    3.924 --     2 N    0.990    16 H    0.964    17 H    0.963
                            15 H    0.961
     2   7 N    3.583 --     3 C    1.333     6 C    1.129     1 C    0.990
     3   6 C    3.719 --     2 N    1.333     4 N    1.238    18 H    0.957
     4   7 N    3.527 --     3 C    1.238     5 C    1.184    25 H    0.924
     5   6 C    3.883 --     6 C    1.288     4 N    1.184    13 N    1.184
     6   6 C    3.890 --     5 C    1.288     7 C    1.166     2 N    1.129
     7   6 C    3.844 --     8 O    1.660     6 C    1.166     9 N    0.913
     8   8 O    1.966 --     7 C    1.660     9 N    0.102
     9   7 N    3.660 --    10 C    1.302    11 C    1.210     7 C    0.913
                             8 O    0.102
    10   6 C    3.529 --     9 N    1.302    20 H    0.966    19 H    0.961
                            11 C    0.145
    11   6 C    3.715 --     9 N    1.210    13 N    1.144    12 O    1.103
                            10 C    0.145
    12   8 O    2.110 --    11 C    1.103    21 H    0.841
    13   7 N    3.543 --     5 C    1.184    11 C    1.144    14 C    0.975
    14   6 C    3.928 --    13 N    0.975    22 H    0.971    23 H    0.969
                            24 H    0.968
    15   1 H    0.983 --     1 C    0.961
    16   1 H    0.984 --     1 C    0.964
    17   1 H    0.983 --     1 C    0.963
    18   1 H    0.986 --     3 C    0.957
    19   1 H    0.986 --    10 C    0.961
    20   1 H    0.994 --    10 C    0.966
    21   1 H    0.875 --    12 O    0.841
    22   1 H    0.989 --    14 C    0.971
    23   1 H    0.987 --    14 C    0.969
    24   1 H    0.985 --    14 C    0.968
    25   1 H    0.952 --     4 N    0.924
 ---------------------------------------------------------------------------

molecular dipole:
                 x           y           z       tot (Debye)
 q only:        0.702      -2.166       0.254
   full:        0.619      -2.502       0.304       6.596

           -------------------------------------------------
          | TOTAL ENERGY              -42.174458620736 Eh   |
          | GRADIENT NORM               0.007591759958 Eh/α |
          | HOMO-LUMO GAP               1.201187465482 eV   |
           -------------------------------------------------

 * finished run on 2024/06/05 at 19:58:25.728
