   * xtb version 6.6.1 (8d0f1dd) compiled by 'conda@1efc2f54142f' on 2023-08-01
          program call               : xtb struc.xyz --opt loose --input .xc1 --gfn2

   ID    Z sym.   atoms
    1    6 C      1, 3, 5-7, 10, 11, 14
    2    7 N      2, 4, 9, 13
    3    8 O      8, 12
    4    1 H      15-25
constraining bond 4 13 to    4.8400000 Å, actual value:    2.4476530 Å

          :  Hamiltonian                  GFN2-xTB          :
 * total energy  :    -1.3711422 Eh     change       -0.6650680E-10 Eh
 * total energy  :   -21.0536632 Eh     change       -0.1968252E+02 Eh
 * total energy  :   -32.5932702 Eh     change       -0.1153961E+02 Eh
 * total energy  :   -38.9306006 Eh     change       -0.6337330E+01 Eh
 * total energy  :   -41.3230210 Eh     change       -0.2392420E+01 Eh
 * total energy  :   -41.5835045 Eh     change       -0.2604835E+00 Eh
 * total energy  :   -41.6113979 Eh     change       -0.2789346E-01 Eh
 * total energy  :   -41.6593445 Eh     change       -0.4794659E-01 Eh
 * total energy  :   -41.6863721 Eh     change       -0.2702757E-01 Eh
 * total energy  :   -41.7078424 Eh     change       -0.2147032E-01 Eh
 * total energy  :   -42.1089245 Eh     change       -0.2300676E-04 Eh
 * total energy  :   -42.1089957 Eh     change       -0.7114801E-04 Eh
 * total energy  :   -42.1090561 Eh     change       -0.6042232E-04 Eh
 * total energy  :   -42.1091102 Eh     change       -0.5407953E-04 Eh
 * total energy  :   -42.1092122 Eh     change       -0.1020085E-03 Eh
 * total energy  :   -42.1092894 Eh     change       -0.7726322E-04 Eh
 * total energy  :   -42.1093557 Eh     change       -0.6629591E-04 Eh
 * total energy  :   -42.1093886 Eh     change       -0.3292108E-04 Eh
 * total energy  :   -42.1094211 Eh     change       -0.3245843E-04 Eh
   *** GEOMETRY OPTIMIZATION CONVERGED AFTER 111 ITERATIONS ***

 final structure:
================
25
 xtb: 6.6.1 (8d0f1dd)
C            3.06340598497983        0.95191258495144       -0.18278876466904
N            2.13505288729840       -0.13255706618263       -0.03223735098912
C            2.50778993675716       -1.45148617295860       -0.15153710101508
N            3.51925835434414       -2.05002828661855       -0.50297465498061
C            0.08114282820561       -1.16701829800953        0.26065542439698
C            0.77773848651873       -0.00630771840083        0.12602516254422
C            0.02288187727054        1.25679602895336        0.10796135769532
O            0.53282573182818        2.35150359370293        0.11523442329270
N           -1.35021874509169        1.06432426168398        0.04420959104163
C           -2.19583800198117        2.24531721321992       -0.07504141016102
C           -2.02469654975350       -0.13447322817275        0.06466077882575
O           -3.21323576992807       -0.24548638104872       -0.01967755283891
N           -1.20665290623306       -1.29781571702407        0.23311209105671
C           -1.90315475759148       -2.55304950979837        0.40348086390151
H            2.68459041590494        1.83734872068951        0.32858796935176
H            4.03012990364149        0.67007710677554        0.23607984435433
H            3.19711944307813        1.20302246435141       -1.24086251399403
H            1.58944219870790       -2.06436094119703        0.10643574637022
H           -1.57372392457451        3.12881305602809        0.04807913865727
H           -2.67584805940935        2.26024879927928       -1.05433743715257
H           -2.97330814795601        2.21543390680746        0.68765011345446
H           -1.18042951610084       -3.35903457596689        0.49930016208521
H           -2.55410144635742       -2.72600919208821       -0.45529957636192
H           -2.53439567898661       -2.50785401907023        1.29283252734348
H            4.40465696952809       -1.67107808830545       -0.80837721431259

          :  Hamiltonian                  GFN2-xTB          :
         :: total energy             -42.109421107888 Eh    ::
         :: gradient norm              0.002745198889 Eh/a0 ::
         :: HOMO-LUMO gap              0.532443146601 eV    ::
         :: SCC energy               -42.648312905423 Eh    ::
         :: -> dispersion             -0.021758573876 Eh    ::
         :: repulsion energy           0.538795975063 Eh    ::

    * Orbital Energies and Occupations

         #    Occupation            Energy/Eh            Energy/eV
      -------------------------------------------------------------
         1        2.0000           -0.8992224             -24.4691
       ...           ...                  ...                  ...
        25        1.9997           -0.6648054             -18.0903
        26        1.9994           -0.6535464             -17.7839
        27        1.9992           -0.6491865             -17.6653
        28        1.9988           -0.6422914             -17.4776
        29        1.9985           -0.6387553             -17.3814
        30        1.9981           -0.6357924             -17.3008
        31        1.9949           -0.6197952             -16.8655
        32        1.9937           -0.6164537             -16.7746
        33        1.9868           -0.6046500             -16.4534
        34        1.9611           -0.5873354             -15.9822
        35        1.9513           -0.5837271             -15.8840
        36        1.9287           -0.5774988             -15.7145
        37        1.3890           -0.5382832             -14.6474 (HOMO)
        38        0.7956           -0.5187163             -14.1150 (LUMO)
        39        0.0044           -0.4282504             -11.6533
        40        0.0011           -0.4062234             -11.0539
        41        0.0002           -0.3787586             -10.3065
        42        0.0000           -0.3021115              -8.2209
        43                         -0.2071981              -5.6381
        44                         -0.1618244              -4.4035
        45                         -0.1418294              -3.8594
        46                         -0.0865112              -2.3541
        47                         -0.0670112              -1.8235
        48                         -0.0474044              -1.2899
       ...                                ...                  ...
        67                          0.5703874              15.5210
      -------------------------------------------------------------
                  HL-Gap            0.0195669 Eh            0.5324 eV

     #   Z          covCN         q      C6AA      α(0)
     1   6 C        3.691    -0.076    22.149     6.735
     2   7 N        2.749     0.024    20.835     6.779
     3   6 C        2.822     0.127    25.197     8.225
     4   7 N        1.772    -0.198    26.083     7.563
     5   6 C        1.975    -0.024    31.711     9.094
     6   6 C        2.965     0.021    27.530     8.606
     7   6 C        2.771     0.276    22.334     7.740
     8   8 O        0.858    -0.331    20.351     6.048
     9   7 N        2.741    -0.068    22.553     7.053
    10   6 C        3.710    -0.063    21.846     6.680
    11   6 C        2.737     0.315    21.645     7.617
    12   8 O        0.859    -0.316    20.069     6.006
    13   7 N        2.741     0.023    20.856     6.783
    14   6 C        3.702    -0.071    22.016     6.709
    15   1 H        0.924     0.129     1.542     1.942
    16   1 H        0.924     0.100     1.786     2.090
    17   1 H        0.924     0.106     1.734     2.059
    18   1 H        0.922     0.130     1.533     1.937
    19   1 H        0.925     0.119     1.623     1.993
    20   1 H        0.924     0.106     1.728     2.056
    21   1 H        0.925     0.109     1.704     2.041
    22   1 H        0.925     0.105     1.741     2.064
    23   1 H        0.924     0.119     1.619     1.990
    24   1 H        0.924     0.116     1.645     2.006
    25   1 H        0.860     0.221     1.006     1.571

Wiberg/Mayer (AO) data.
largest (>0.10) Wiberg bond orders for each atom

     #   Z sym  total        # sym  WBO       # sym  WBO       # sym  WBO
 ---------------------------------------------------------------------------
     1   6 C    3.898 --     2 N    0.995    16 H    0.963    15 H    0.949
                            17 H    0.941
     2   7 N    3.433 --     6 C    1.157     3 C    1.115     1 C    0.995
     3   6 C    3.861 --     4 N    1.907     2 N    1.115    18 H    0.768
     4   7 N    3.011 --     3 C    1.907    25 H    0.898
     5   6 C    3.252 --     6 C    1.411    13 N    1.405    18 H    0.142
     6   6 C    3.782 --     5 C    1.411     2 N    1.157     7 C    1.005
     7   6 C    3.907 --     8 O    1.683     9 N    1.118     6 C    1.005
     8   8 O    1.995 --     7 C    1.683     9 N    0.133
     9   7 N    3.548 --    11 C    1.138     7 C    1.118    10 C    0.964
                             8 O    0.133    12 O    0.132
    10   6 C    3.886 --    19 H    0.964     9 N    0.964    21 H    0.959
                            20 H    0.955
    11   6 C    3.913 --    12 O    1.721     9 N    1.138    13 N    0.968
    12   8 O    2.030 --    11 C    1.721     9 N    0.132
    13   7 N    3.552 --     5 C    1.405    14 C    0.974    11 C    0.968
    14   6 C    3.895 --    22 H    0.974    13 N    0.974    23 H    0.952
                            24 H    0.951
    15   1 H    0.972 --     1 C    0.949
    16   1 H    0.979 --     1 C    0.963
    17   1 H    0.960 --     1 C    0.941
    18   1 H    0.960 --     3 C    0.768     5 C    0.142
    19   1 H    0.982 --    10 C    0.964
    20   1 H    0.976 --    10 C    0.955
    21   1 H    0.978 --    10 C    0.959
    22   1 H    0.987 --    14 C    0.974
    23   1 H    0.973 --    14 C    0.952
    24   1 H    0.971 --    14 C    0.951
    25   1 H    0.924 --     4 N    0.898
 ---------------------------------------------------------------------------

molecular dipole:
                 x           y           z       tot (Debye)
 q only:        1.411      -1.146      -0.051
   full:        1.475      -0.934      -0.068       4.442

           -------------------------------------------------
          | TOTAL ENERGY              -42.109421107888 Eh   |
          | GRADIENT NORM               0.002745198889 Eh/α |
          | HOMO-LUMO GAP               0.532443146601 eV   |
           -------------------------------------------------

 * finished run on 2024/06/05 at 20:00:11.748
