   * xtb version 6.6.1 (8d0f1dd) compiled by 'conda@1efc2f54142f' on 2023-08-01
          program call               : xtb xtbopt.xyz --opt crude --input .xc2 --gfn2

   ID    Z sym.   atoms
    1    6 C      1, 3, 5-7, 10, 11, 14
    2    7 N      2, 4, 9, 13
    3    8 O      8, 12
    4    1 H      15-25
########################################################################
[WARNING] Please study the warnings concerning your input carefully
-1- readin_getIntValue: could not parse ''
########################################################################

          :  Hamiltonian                  GFN2-xTB          :
 * total energy  :   -42.1094413 Eh     change       -0.5897505E-12 Eh
 * total energy  :   -42.1109647 Eh     change       -0.1523344E-02 Eh
 * total energy  :   -42.1125659 Eh     change       -0.1601188E-02 Eh
 * total energy  :   -42.1134985 Eh     change       -0.9325983E-03 Eh
 * total energy  :   -42.1144825 Eh     change       -0.9840834E-03 Eh
 * total energy  :   -42.1150152 Eh     change       -0.5326446E-03 Eh
 * total energy  :   -42.1151258 Eh     change       -0.1106181E-03 Eh
   *** GEOMETRY OPTIMIZATION CONVERGED AFTER 7 ITERATIONS ***

 final structure:
================
25
 xtb: 6.6.1 (8d0f1dd)
C            2.99618277183205        0.90859118118206       -0.21447696096114
N            2.11388573029804       -0.22356068574279       -0.10388096293939
C            2.65960947014951       -1.49632143956494       -0.17947705347917
N            3.83094546901405       -1.84964384614501       -0.40811002091366
C           -0.01255476784693       -1.26236492371589        0.15700190673021
C            0.75196935796599       -0.13876526132372        0.02322556242908
C            0.02193932506584        1.16000315205893        0.02483509817313
O            0.57195227852168        2.23734361262823        0.00346930134765
N           -1.35360539870774        1.04486841914067        0.04224662330289
C           -2.14051709906468        2.26966443412923       -0.04008234984585
C           -2.08715331693796       -0.11730795604050        0.12496865041504
O           -3.28413496774502       -0.16589164815737        0.12417191351607
N           -1.31395804552732       -1.30150710119477        0.23283543654825
C           -2.05003523379939       -2.53505738036187        0.41186211203811
H            2.54526932224890        1.79165824007107        0.23586685417736
H            3.93593635045870        0.68562291941500        0.29264547331846
H            3.20406881458356        1.13566044590945       -1.26505714902194
H            1.90813736264896       -2.27440221254415       -0.01484830542604
H           -1.47164670683535        3.12067127406787        0.06800478369783
H           -2.64998627199009        2.31631039822084       -1.00372028615698
H           -2.89355461081748        2.27146459037124        0.74747521250808
H           -1.35271943051423       -3.36504305436915        0.48523737947393
H           -2.72842883437882       -2.68314685874483       -0.43059356636204
H           -2.65778419024906       -2.47091460769378        1.31638873464606
H            4.61661413572608       -1.23969314999459       -0.59881676931921

          :  Hamiltonian                  GFN2-xTB          :
         :: total energy             -42.115125802402 Eh    ::
         :: gradient norm              0.005513128172 Eh/a0 ::
         :: HOMO-LUMO gap              0.232945539163 eV    ::
         :: SCC energy               -42.644513749404 Eh    ::
         :: -> dispersion             -0.021562717056 Eh    ::
         :: repulsion energy           0.529331359251 Eh    ::

    * Orbital Energies and Occupations

         #    Occupation            Energy/Eh            Energy/eV
      -------------------------------------------------------------
         1        2.0000           -0.9013495             -24.5270
       ...           ...                  ...                  ...
        25        1.9994           -0.6570726             -17.8799
        26        1.9991           -0.6521203             -17.7451
        27        1.9989           -0.6480117             -17.6333
        28        1.9986           -0.6444804             -17.5372
        29        1.9978           -0.6377745             -17.3547
        30        1.9977           -0.6367177             -17.3260
        31        1.9945           -0.6229115             -16.9503
        32        1.9926           -0.6182520             -16.8235
        33        1.9830           -0.6050573             -16.4644
        34        1.9547           -0.5893272             -16.0364
        35        1.9479           -0.5870391             -15.9741
        36        1.8476           -0.5692121             -15.4890
        37        1.2738           -0.5386082             -14.6563 (HOMO)
        38        1.0107           -0.5300476             -14.4233 (LUMO)
        39        0.0031           -0.4274740             -11.6322
        40        0.0010           -0.4100094             -11.1569
        41        0.0002           -0.3799645             -10.3394
        42        0.0000           -0.3030800              -8.2472
        43                         -0.2090084              -5.6874
        44                         -0.1614016              -4.3920
        45                         -0.1495819              -4.0703
        46                         -0.0848807              -2.3097
        47                         -0.0684675              -1.8631
        48                         -0.0470403              -1.2800
       ...                                ...                  ...
        67                          0.5322015              14.4819
      -------------------------------------------------------------
                  HL-Gap            0.0085606 Eh            0.2329 eV

     #   Z          covCN         q      C6AA      α(0)
     1   6 C        3.697    -0.082    22.250     6.747
     2   7 N        2.739     0.034    20.649     6.749
     3   6 C        2.786     0.123    25.276     8.235
     4   7 N        1.773    -0.200    26.133     7.570
     5   6 C        1.949    -0.033    31.967     9.131
     6   6 C        2.917     0.030    27.330     8.573
     7   6 C        2.773     0.275    22.356     7.744
     8   8 O        0.858    -0.330    20.332     6.046
     9   7 N        2.739    -0.064    22.481     7.042
    10   6 C        3.710    -0.063    21.850     6.680
    11   6 C        2.733     0.316    21.629     7.614
    12   8 O        0.859    -0.315    20.055     6.004
    13   7 N        2.741     0.026    20.792     6.772
    14   6 C        3.705    -0.071    22.008     6.707
    15   1 H        0.925     0.135     1.498     1.914
    16   1 H        0.924     0.100     1.789     2.092
    17   1 H        0.924     0.108     1.711     2.046
    18   1 H        0.924     0.116     1.642     2.004
    19   1 H        0.925     0.119     1.619     1.990
    20   1 H        0.924     0.108     1.716     2.048
    21   1 H        0.925     0.111     1.687     2.031
    22   1 H        0.925     0.107     1.718     2.050
    23   1 H        0.924     0.119     1.619     1.990
    24   1 H        0.924     0.117     1.636     2.000
    25   1 H        0.860     0.212     1.047     1.603

Wiberg/Mayer (AO) data.
largest (>0.10) Wiberg bond orders for each atom

     #   Z sym  total        # sym  WBO       # sym  WBO       # sym  WBO
 ---------------------------------------------------------------------------
     1   6 C    3.892 --     2 N    0.998    16 H    0.959    15 H    0.940
                            17 H    0.939
     2   7 N    3.429 --     6 C    1.183     3 C    1.109     1 C    0.998
     3   6 C    3.914 --     4 N    1.859     2 N    1.109    18 H    0.890
     4   7 N    2.923 --     3 C    1.859    25 H    0.909
     5   6 C    3.074 --     6 C    1.400    13 N    1.399
     6   6 C    3.757 --     5 C    1.400     2 N    1.183     7 C    0.981
     7   6 C    3.889 --     8 O    1.673     9 N    1.138     6 C    0.981
     8   8 O    1.989 --     7 C    1.673     9 N    0.130
     9   7 N    3.547 --     7 C    1.138    11 C    1.127    10 C    0.962
                             8 O    0.130    12 O    0.127
    10   6 C    3.880 --    19 H    0.963     9 N    0.962    21 H    0.958
                            20 H    0.954
    11   6 C    3.913 --    12 O    1.715     9 N    1.127    13 N    0.989
    12   8 O    2.018 --    11 C    1.715     9 N    0.127
    13   7 N    3.546 --     5 C    1.399    11 C    0.989    14 C    0.972
    14   6 C    3.888 --    22 H    0.974    13 N    0.972    24 H    0.950
                            23 H    0.949
    15   1 H    0.970 --     1 C    0.940
    16   1 H    0.977 --     1 C    0.959
    17   1 H    0.957 --     1 C    0.939
    18   1 H    0.966 --     3 C    0.890
    19   1 H    0.981 --    10 C    0.963
    20   1 H    0.975 --    10 C    0.954
    21   1 H    0.977 --    10 C    0.958
    22   1 H    0.986 --    14 C    0.974
    23   1 H    0.970 --    14 C    0.949
    24   1 H    0.971 --    14 C    0.950
    25   1 H    0.939 --     4 N    0.909
 ---------------------------------------------------------------------------

molecular dipole:
                 x           y           z       tot (Debye)
 q only:        1.236      -0.984      -0.028
   full:        1.200      -0.736      -0.049       3.581

           -------------------------------------------------
          | TOTAL ENERGY              -42.115125802402 Eh   |
          | GRADIENT NORM               0.005513128172 Eh/α |
          | HOMO-LUMO GAP               0.232945539163 eV   |
           -------------------------------------------------

 * finished run on 2024/06/05 at 20:00:12.041
