   * xtb version 6.6.1 (8d0f1dd) compiled by 'conda@1efc2f54142f' on 2023-08-01
          program call               : xtb struc.xyz --opt loose --input .xc1 --gfn2

   ID    Z sym.   atoms
    1    6 C      1, 3, 5-7, 10, 11, 14
    2    7 N      2, 4, 9, 13
    3    8 O      8, 12
    4    1 H      15-25
constraining bond 5 22 to    5.1400000 Å, actual value:    2.7765911 Å

          :  Hamiltonian                  GFN2-xTB          :
 * total energy  :   -22.3009595 Eh     change       -0.6650680E-10 Eh
 * total energy  :   -31.1735597 Eh     change       -0.8872600E+01 Eh
 * total energy  :   -36.7915609 Eh     change       -0.5618001E+01 Eh
 * total energy  :   -40.1030500 Eh     change       -0.3311489E+01 Eh
 * total energy  :   -41.4935439 Eh     change       -0.1390494E+01 Eh
 * total energy  :   -41.7583234 Eh     change       -0.2647795E+00 Eh
 * total energy  :   -41.7755592 Eh     change       -0.1723583E-01 Eh
 * total energy  :   -41.7892620 Eh     change       -0.1370281E-01 Eh
 * total energy  :   -41.8261465 Eh     change       -0.3688450E-01 Eh
 * total energy  :   -41.8383003 Eh     change       -0.1215377E-01 Eh
 * total energy  :   -42.0985985 Eh     change       -0.9128799E-02 Eh
 * total energy  :   -42.1006349 Eh     change       -0.2036401E-02 Eh
 * total energy  :   -42.1021312 Eh     change       -0.1496316E-02 Eh
 * total energy  :   -42.1025584 Eh     change       -0.4271812E-03 Eh
 * total energy  :   -42.1027556 Eh     change       -0.1972392E-03 Eh
 * total energy  :   -42.1028576 Eh     change       -0.1019555E-03 Eh
 * total energy  :   -42.1029514 Eh     change       -0.9379488E-04 Eh
 * total energy  :   -42.1029914 Eh     change       -0.4002636E-04 Eh
 * total energy  :   -42.1030272 Eh     change       -0.3578127E-04 Eh
   *** GEOMETRY OPTIMIZATION CONVERGED AFTER 31 ITERATIONS ***

 final structure:
================
25
 xtb: 6.6.1 (8d0f1dd)
C            3.25224485058909        1.23715032354852        0.02138081371187
N            2.31723336390339        0.14579762631262       -0.05075681905354
C            2.60778040969522       -1.14927424732794       -0.10312168479381
N            1.47343284372197       -1.87723423214455       -0.14075145343206
C            0.41222405644239       -1.00568553803725       -0.11357959141708
C            0.94928792947445        0.27540965784670       -0.05514079719687
C            0.12139082096797        1.46110688996378       -0.02801459844781
O            0.51851490581353        2.60370774234381       -0.01146124753660
N           -1.23749910138870        1.12668523736909       -0.02538854571476
C           -2.19263679410589        2.23021229159705        0.02210975554868
C           -1.81233735261459       -0.11356320215299       -0.06540247398823
O           -2.99339703448540       -0.30401645161918       -0.05244776536560
N           -0.91625323386943       -1.26543492144002       -0.13280815859417
C           -1.47572255837249       -2.48208977652479       -0.21367673332549
H            3.75799032662954        1.23801145311121        0.98814930715684
H            4.00039553539411        1.14781806101936       -0.76517803429902
H            2.70697412971354        2.17361533628811       -0.09247150684675
H            3.59867444948244       -1.56046081762761       -0.10836166176667
H           -1.63067865459582        3.16076836827672        0.02872792058319
H           -2.84703204541171        2.18928218344715       -0.84740596277384
H           -2.80312936106261        2.15099091796115        0.92057079183387
H           -2.65185546674763       -4.78729417565922        1.53910233086952
H           -0.87333906434174       -3.36483963433968       -0.27746415565111
H           -2.54813300745473       -2.52676358501536       -0.22373257538479
H            1.42630156672295       -2.88566096559651       -0.18170553621574

          :  Hamiltonian                  GFN2-xTB          :
         :: total energy             -42.103027200581 Eh    ::
         :: gradient norm              0.002405350483 Eh/a0 ::
         :: HOMO-LUMO gap              0.208544236859 eV    ::
         :: SCC energy               -42.626206957711 Eh    ::
         :: -> dispersion             -0.022637582387 Eh    ::
         :: repulsion energy           0.523092479960 Eh    ::

    * Orbital Energies and Occupations

         #    Occupation            Energy/Eh            Energy/eV
      -------------------------------------------------------------
         1        2.0000           -0.9188750             -25.0039
       ...           ...                  ...                  ...
        25        2.0000           -0.6703719             -18.2417
        26        2.0000           -0.6702889             -18.2395
        27        2.0000           -0.6612489             -17.9935
        28        1.9999           -0.6372144             -17.3395
        29        1.9998           -0.6333572             -17.2345
        30        1.9998           -0.6296358             -17.1333
        31        1.9996           -0.6211034             -16.9011
        32        1.9986           -0.6001722             -16.3315
        33        1.9976           -0.5912941             -16.0899
        34        1.9968           -0.5868134             -15.9680
        35        1.9878           -0.5657649             -15.3952
        36        1.9867           -0.5644001             -15.3581
        37        1.0830           -0.4877049             -13.2711 (HOMO)
        38        0.8425           -0.4800410             -13.0626 (LUMO)
        39        0.0962           -0.4377982             -11.9131
        40        0.0099           -0.4010298             -10.9126
        41        0.0019           -0.3752401             -10.2108
        42        0.0000           -0.2904177              -7.9027
        43                         -0.2154898              -5.8638
        44                         -0.2026271              -5.5138
        45                         -0.1528047              -4.1580
        46                         -0.1366257              -3.7178
        47                         -0.0696990              -1.8966
        48                         -0.0419183              -1.1407
       ...                                ...                  ...
        67                          0.5547374              15.0952
      -------------------------------------------------------------
                  HL-Gap            0.0076639 Eh            0.2085 eV

     #   Z          covCN         q      C6AA      α(0)
     1   6 C        3.691    -0.097    22.540     6.794
     2   7 N        2.831     0.085    19.759     6.602
     3   6 C        3.051     0.055    26.727     8.479
     4   7 N        2.790    -0.056    22.320     7.017
     5   6 C        3.038     0.093    25.907     8.348
     6   6 C        3.114    -0.016    28.251     8.707
     7   6 C        2.763     0.267    22.493     7.767
     8   8 O        0.858    -0.364    20.983     6.142
     9   7 N        2.744    -0.078    22.755     7.085
    10   6 C        3.713    -0.065    21.872     6.682
    11   6 C        2.734     0.311    21.721     7.630
    12   8 O        0.859    -0.336    20.435     6.061
    13   7 N        2.735     0.009    21.101     6.822
    14   6 C        2.797    -0.057    29.395     8.882
    15   1 H        0.924     0.110     1.693     2.035
    16   1 H        0.925     0.107     1.718     2.050
    17   1 H        0.925     0.140     1.464     1.892
    18   1 H        0.926     0.128     1.547     1.945
    19   1 H        0.925     0.117     1.641     2.003
    20   1 H        0.925     0.099     1.792     2.093
    21   1 H        0.925     0.099     1.794     2.095
    22   1 H        0.000    -0.007     7.943     5.153
    23   1 H        0.926     0.090     1.881     2.145
    24   1 H        0.926     0.135     1.497     1.913
    25   1 H        0.860     0.230     0.965     1.539

Wiberg/Mayer (AO) data.
largest (>0.10) Wiberg bond orders for each atom

     #   Z sym  total        # sym  WBO       # sym  WBO       # sym  WBO
 ---------------------------------------------------------------------------
     1   6 C    3.912 --     2 N    0.984    16 H    0.962    17 H    0.959
                            15 H    0.955
     2   7 N    3.673 --     3 C    1.386     6 C    1.165     1 C    0.984
     3   6 C    3.844 --     2 N    1.386     4 N    1.290    18 H    0.951
     4   7 N    3.555 --     3 C    1.290     5 C    1.166    25 H    0.918
     5   6 C    3.886 --     6 C    1.339     4 N    1.166    13 N    1.164
     6   6 C    3.858 --     5 C    1.339     2 N    1.165     7 C    1.074
     7   6 C    3.917 --     8 O    1.675     9 N    1.081     6 C    1.074
     8   8 O    1.989 --     7 C    1.675     9 N    0.138
     9   7 N    3.569 --    11 C    1.170     7 C    1.081    10 C    0.962
                            12 O    0.151     8 O    0.138
    10   6 C    3.910 --    19 H    0.967    20 H    0.966    21 H    0.965
                             9 N    0.962
    11   6 C    3.925 --    12 O    1.730     9 N    1.170    13 N    0.930
    12   8 O    2.058 --    11 C    1.730     9 N    0.151
    13   7 N    3.623 --    14 C    1.303     5 C    1.164    11 C    0.930
    14   6 C    3.349 --    13 N    1.303    23 H    0.969    24 H    0.957
    15   1 H    0.984 --     1 C    0.955
    16   1 H    0.986 --     1 C    0.962
    17   1 H    0.980 --     1 C    0.959
    18   1 H    0.982 --     3 C    0.951
    19   1 H    0.985 --    10 C    0.967
    20   1 H    0.986 --    10 C    0.966
    21   1 H    0.986 --    10 C    0.965
    22   1 H    0.013
    23   1 H    0.991 --    14 C    0.969
    24   1 H    0.981 --    14 C    0.957
    25   1 H    0.946 --     4 N    0.918
 ---------------------------------------------------------------------------

molecular dipole:
                 x           y           z       tot (Debye)
 q only:        2.693      -1.638      -0.200
   full:        2.968      -2.225      -0.215       9.444

           -------------------------------------------------
          | TOTAL ENERGY              -42.103027200581 Eh   |
          | GRADIENT NORM               0.002405350483 Eh/α |
          | HOMO-LUMO GAP               0.208544236859 eV   |
           -------------------------------------------------

 * finished run on 2024/06/05 at 19:59:12.035
