   * xtb version 6.6.1 (8d0f1dd) compiled by 'conda@1efc2f54142f' on 2023-08-01
          program call               : xtb struc.xyz --opt loose --input .xc1 --gfn2

   ID    Z sym.   atoms
    1    6 C      1, 3, 5-7, 10, 11, 14
    2    7 N      2, 4, 9, 13
    3    8 O      8, 12
    4    1 H      15-25
constraining bond 2 9 to    5.8400000 Å, actual value:    3.6850118 Å

          :  Hamiltonian                  GFN2-xTB          :
 * total energy  :   -33.9558935 Eh     change       -0.6650680E-10 Eh
 * total energy  :   -37.4253666 Eh     change       -0.3469473E+01 Eh
 * total energy  :   -39.7920736 Eh     change       -0.2366707E+01 Eh
 * total energy  :   -41.1255040 Eh     change       -0.1333430E+01 Eh
 * total energy  :   -41.6604107 Eh     change       -0.5349068E+00 Eh
 * total energy  :   -41.7657646 Eh     change       -0.1053539E+00 Eh
 * total energy  :   -41.8210321 Eh     change       -0.5526743E-01 Eh
 * total energy  :   -41.8899621 Eh     change       -0.6893000E-01 Eh
 * total energy  :   -41.9361010 Eh     change       -0.4613890E-01 Eh
 * total energy  :   -41.9695042 Eh     change       -0.3340323E-01 Eh
 * total energy  :   -42.1570107 Eh     change       -0.1504226E-02 Eh
 * total energy  :   -42.1578645 Eh     change       -0.8537301E-03 Eh
 * total energy  :   -42.1579083 Eh     change       -0.4386120E-04 Eh
 * total energy  :   -42.1583702 Eh     change       -0.4618998E-03 Eh
 * total energy  :   -42.1584982 Eh     change       -0.1279716E-03 Eh
 * total energy  :   -42.1585755 Eh     change       -0.7725983E-04 Eh
 * total energy  :   -42.1586863 Eh     change       -0.1108164E-03 Eh
 * total energy  :   -42.1587374 Eh     change       -0.5111636E-04 Eh
 * total energy  :   -42.1587629 Eh     change       -0.2554287E-04 Eh
   *** GEOMETRY OPTIMIZATION CONVERGED AFTER 58 ITERATIONS ***

 final structure:
================
25
 xtb: 6.6.1 (8d0f1dd)
C            4.59871543968587        0.20560547072156       -0.00750627228481
N            3.71831968302734       -0.68587608300705       -0.09040215580838
C            2.77757514574030       -1.52753366532752        0.02384936663958
N            1.42809560258441       -1.43192312011095        0.02445697483863
C            0.43220901514399       -0.44017057960453        0.00015385236777
C            0.62252127728187        0.90329657789522        0.00450454891188
C           -0.49586432849337        1.83763391424648        0.00569342570711
O           -0.35064459026544        3.03841085806466        0.01076397622672
N           -1.77661024317661        1.26488985877740        0.00667452271143
C           -2.94144073250438        2.12500403848119        0.01219494113084
C           -1.99059128670338       -0.08828854807455       -0.00632552515961
O           -3.09726119808300       -0.56261556387446       -0.01106339181508
N           -0.85305461188771       -0.93061493542005       -0.01375038133436
C           -1.14779641300872       -2.35445563980415       -0.03483686802377
H            4.88444661888191        0.61934751990395        0.95095150505835
H            5.11891829666630        0.53460552961158       -0.89911260792000
H            1.60280339767185        1.34651454996496        0.01140444780925
H            3.11267999814265       -2.56477341921879        0.07161849137437
H           -2.59477106816501        3.15631590489318        0.02796962047367
H           -3.54346398825128        1.93915011407658       -0.87778224378950
H           -3.55297778099762        1.91404507685584        0.88996363723376
H           -0.80294074981499       -2.85119394625940        0.87479184795705
H           -0.74690408261871       -2.83331606929886       -0.93045167984265
H           -2.23542559356915       -2.44572436287769       -0.06711160171748
H            0.99389370681299       -2.35009493901423        0.05452318715505

          :  Hamiltonian                  GFN2-xTB          :
         :: total energy             -42.158762938118 Eh    ::
         :: gradient norm              0.002761976269 Eh/a0 ::
         :: HOMO-LUMO gap              2.262989198891 eV    ::
         :: SCC energy               -42.708560985425 Eh    ::
         :: -> dispersion             -0.021024345265 Eh    ::
         :: repulsion energy           0.549643799766 Eh    ::

    * Orbital Energies and Occupations

         #    Occupation            Energy/Eh            Energy/eV
      -------------------------------------------------------------
         1        2.0000           -0.8770537             -23.8658
       ...           ...                  ...                  ...
        25        1.9999           -0.6592639             -17.9395
        26        1.9999           -0.6550401             -17.8245
        27        1.9998           -0.6441096             -17.5271
        28        1.9998           -0.6380292             -17.3617
        29        1.9997           -0.6340531             -17.2535
        30        1.9992           -0.6181694             -16.8212
        31        1.9992           -0.6172603             -16.7965
        32        1.9951           -0.5890711             -16.0294
        33        1.9947           -0.5880303             -16.0011
        34        1.9797           -0.5665348             -15.4162
        35        1.9376           -0.5484340             -14.9236
        36        1.9215           -0.5446600             -14.8210
        37        1.9090           -0.5422265             -14.7547 (HOMO)
        38        0.1980           -0.4590631             -12.4917 (LUMO)
        39        0.0649           -0.4402854             -11.9808
        40        0.0016           -0.3811835             -10.3725
        41        0.0005           -0.3632146              -9.8836
        42        0.0000           -0.2760093              -7.5106
        43                         -0.2072411              -5.6393
        44                         -0.1718740              -4.6769
        45                         -0.1275815              -3.4717
        46                         -0.1186472              -3.2286
        47                         -0.0940982              -2.5605
        48                         -0.0481281              -1.3096
       ...                                ...                  ...
        67                          0.6918263              18.8256
      -------------------------------------------------------------
                  HL-Gap            0.0831633 Eh            2.2630 eV

     #   Z          covCN         q      C6AA      α(0)
     1   6 C        2.764     0.017    27.622     8.607
     2   7 N        1.823     0.004    21.874     6.930
     3   6 C        2.749     0.111    25.522     8.272
     4   7 N        2.689    -0.101    23.221     7.157
     5   6 C        2.821     0.127    25.217     8.228
     6   6 C        2.905    -0.105    30.652     9.078
     7   6 C        2.768     0.275    22.358     7.744
     8   8 O        0.859    -0.342    20.553     6.078
     9   7 N        2.738    -0.070    22.604     7.061
    10   6 C        3.703    -0.059    21.787     6.674
    11   6 C        2.720     0.319    21.579     7.604
    12   8 O        0.860    -0.372    21.133     6.163
    13   7 N        2.749    -0.071    22.620     7.064
    14   6 C        3.698    -0.078    22.164     6.733
    15   1 H        0.925     0.140     1.464     1.892
    16   1 H        0.925     0.145     1.427     1.868
    17   1 H        0.926     0.092     1.858     2.131
    18   1 H        0.924     0.127     1.556     1.951
    19   1 H        0.925     0.114     1.660     2.015
    20   1 H        0.924     0.100     1.784     2.088
    21   1 H        0.924     0.100     1.783     2.088
    22   1 H        0.924     0.077     2.009     2.217
    23   1 H        0.924     0.077     2.006     2.215
    24   1 H        0.924     0.137     1.485     1.906
    25   1 H        0.860     0.236     0.940     1.519

Wiberg/Mayer (AO) data.
largest (>0.10) Wiberg bond orders for each atom

     #   Z sym  total        # sym  WBO       # sym  WBO       # sym  WBO
 ---------------------------------------------------------------------------
     1   6 C    3.713 --     2 N    1.753    16 H    0.928    15 H    0.923
     2   7 N    3.511 --     1 C    1.753     3 C    1.581     4 N    0.131
     3   6 C    3.902 --     2 N    1.581     4 N    1.264    18 H    0.910
     4   7 N    3.519 --     3 C    1.264     5 C    1.075    25 H    0.892
                             2 N    0.131
     5   6 C    3.926 --     6 C    1.545    13 N    1.169     4 N    1.075
     6   6 C    3.877 --     5 C    1.545     7 C    1.088    17 H    0.959
     7   6 C    3.947 --     8 O    1.692     6 C    1.088     9 N    1.082
     8   8 O    1.984 --     7 C    1.692     9 N    0.126
     9   7 N    3.529 --    11 C    1.150     7 C    1.082    10 C    0.978
                            12 O    0.131     8 O    0.126
    10   6 C    3.902 --     9 N    0.978    19 H    0.965    21 H    0.957
                            20 H    0.957
    11   6 C    3.958 --    12 O    1.675     9 N    1.150    13 N    1.047
    12   8 O    2.018 --    11 C    1.675     9 N    0.131    13 N    0.119
    13   7 N    3.510 --     5 C    1.169    11 C    1.047    14 C    0.984
                            12 O    0.119
    14   6 C    3.930 --    13 N    0.984    23 H    0.965    22 H    0.963
                            24 H    0.950
    15   1 H    0.974 --     1 C    0.923
    16   1 H    0.974 --     1 C    0.928
    17   1 H    0.990 --     6 C    0.959
    18   1 H    0.971 --     3 C    0.910
    19   1 H    0.984 --    10 C    0.965
    20   1 H    0.977 --    10 C    0.957
    21   1 H    0.977 --    10 C    0.957
    22   1 H    0.988 --    14 C    0.963
    23   1 H    0.988 --    14 C    0.965
    24   1 H    0.980 --    14 C    0.950
    25   1 H    0.943 --     4 N    0.892
 ---------------------------------------------------------------------------

molecular dipole:
                 x           y           z       tot (Debye)
 q only:        3.711      -2.101       0.034
   full:        3.980      -2.372       0.065      11.778

           -------------------------------------------------
          | TOTAL ENERGY              -42.158762938118 Eh   |
          | GRADIENT NORM               0.002761976269 Eh/α |
          | HOMO-LUMO GAP               2.262989198891 eV   |
           -------------------------------------------------

 * finished run on 2024/06/05 at 19:57:53.489
