   * xtb version 6.6.1 (8d0f1dd) compiled by 'conda@1efc2f54142f' on 2023-08-01
          program call               : xtb xtbopt.xyz --opt crude --input .xc2 --gfn2

   ID    Z sym.   atoms
    1    7 N      1, 17
    2    6 C      2-6, 8, 9, 11-16, 18-23, 25, 26, 28-33
    3    8 O      7, 10, 24, 27
    4    1 H      34-72

          :  Hamiltonian                  GFN2-xTB          :
 * total energy  :   -99.3105015 Eh     change       -0.3552714E-12 Eh
   *** GEOMETRY OPTIMIZATION CONVERGED AFTER 1 ITERATIONS ***

 final structure:
================
72
 xtb: 6.6.1 (8d0f1dd)
N           -1.67883486354623        2.60739959752152        2.31969789904419
C           -1.51811706043862        1.82471777261611        1.36038767874423
C           -2.53976108572270        1.62904777459714        0.26150334569974
C           -3.18146329575304        0.25904889008188        0.41863071277933
C           -4.14828877256930       -0.15613620796582       -0.50098878896450
C           -4.77182733235619       -1.38931016781155       -0.39349571699805
O           -5.70277081126389       -1.86639953827620       -1.24015673213826
C           -6.11839624205459       -1.07979905049583       -2.33156457848571
C           -4.43031432873706       -2.25657627826603        0.68359512330912
O           -5.07735852032176       -3.43377097440627        0.70309878782806
C           -4.83333085083649       -4.34299111263110        1.75194192053159
C           -3.48589561514263       -1.82754412985465        1.60528027614658
C           -2.87423437770787       -0.58902802083237        1.47501382988050
C           -1.78171470494427        1.76111065966496       -1.06394886133523
C           -1.78775130267332        0.77762816400762       -2.19759560082105
C           -0.51162818421095        0.99592661917477       -1.44708083657108
N            0.08412315621572        0.00386761542024       -0.62303457851814
C            1.45771312803828        0.21486115516409       -0.28203315836295
C            2.46423717066400        0.04923708625136       -1.43981025276290
C            3.87050424380829        0.21282872134155       -0.94944867629089
C            4.51872402846885        1.43889273276492       -1.03695331020332
C            5.82194184053855        1.58829967756898       -0.59351647345924
C            6.50859895274336        0.51390910435605       -0.04011130368152
O            7.77446131237734        0.53327848229492        0.40303706632478
C            8.53545256978709        1.71431582301589        0.28708900614025
C            5.84291225844988       -0.74202860360853        0.08060018163680
O            6.57414169696761       -1.72065159135019        0.64075285355589
C            6.01342474844165       -3.00195113729157        0.80579537212292
C            4.53961598175531       -0.86680445541389       -0.37740845201992
C           -0.35502462571305       -1.36630926311977       -0.72865739188854
C           -3.67438588469538        2.70741524781995        0.31059898845635
C           -4.58420497880285        2.50020041445452        1.51983046884562
C           -3.17037973509287        4.14852519111446        0.32185607735754
H           -4.42802092456737        0.50654707778311       -1.30330226128220
H           -6.59319722691223       -0.15211055124860       -1.99924299571715
H           -6.84712312379367       -1.68528626662597       -2.86648212089279
H           -5.28384632492003       -0.84561791840290       -2.99948373074407
H           -5.08985264531901       -3.91170182943229        2.72415807604102
H           -5.47940889509919       -5.19610455188411        1.55369169149063
H           -3.78999457544463       -4.67254630581032        1.76162329912430
H           -3.22097821975774       -2.45485569809130        2.44061451091025
H           -2.15769159144468       -0.29009109858936        2.22286931703075
H           -1.73413338788004        2.79548002545533       -1.37661964728057
H            1.37566666997217        2.62614162296891        0.68777152661495
H           -2.29318305067766       -0.16532657947474       -2.07160685149802
H           -1.85506032114868        1.16586416569188       -3.20391919399694
H           -0.61768014601623        1.21649980048966        1.21198404838404
H            0.22883301096701        1.62632858412024       -1.92894743045902
H            1.72633988487873       -0.46990196597873        0.52698658444497
H            1.54511174317769        1.27509943795645        0.12515928435824
H            2.25746218547557        0.78390399900390       -2.21870120839506
H            2.33313609803821       -0.94970888745759       -1.86380310827882
H            4.00744563830035        2.28734095343355       -1.46446963629883
H            6.30201169588828        2.54881410647783       -0.68565700495423
H            8.10358895377438        2.52811155699333        0.87678787836649
H            8.62880669108109        2.02798509220130       -0.75668076252936
H            9.51980301194313        1.46638883646243        0.67965270801812
H            6.79057800780642       -3.60223902118182        1.27509245443464
H            5.13489273280455       -2.97300963446666        1.45784400214673
H            5.74251179076104       -3.44800750070719       -0.15598634119025
H            4.03436007945731       -1.81768021054102       -0.30706594416387
H           -0.15177552995053       -1.78557929315957       -1.72178834497124
H           -1.42266454327113       -1.43994174942492       -0.52805030811280
H            0.16886067184517       -1.96302503339980        0.01525586105969
H           -4.26844716767511        2.56827223864798       -0.59988196588433
H           -4.01403930389231        2.63178865052498        2.43489094207383
H           -5.03295358722807        1.51028737422708        1.52398285214172
H           -5.38351139869472        3.23675780207240        1.50427653985571
H           -2.57798480984458        4.33228773693311        1.21360341549904
H           -2.57360105184364        4.39524979818049       -0.55274899456411
H           -4.02469484648056        4.82057575175354        0.33503640469318
H           -0.93321915102096        2.69593881224515        3.00151639074953

          :  Hamiltonian                  GFN2-xTB          :
         :: total energy             -99.310501484229 Eh    ::
         :: gradient norm              0.002949234475 Eh/a0 ::
         :: HOMO-LUMO gap              0.686218994123 eV    ::
         :: SCC energy              -100.674755698469 Eh    ::
         :: -> dispersion             -0.078615890734 Eh    ::
         :: repulsion energy           1.362676483057 Eh    ::

    * Orbital Energies and Occupations

         #    Occupation            Energy/Eh            Energy/eV
      -------------------------------------------------------------
         1        2.0000           -0.8203933             -22.3240
       ...           ...                  ...                  ...
        78        1.9962           -0.5342669             -14.5381
        79        1.9957           -0.5323341             -14.4855
        80        1.9946           -0.5289060             -14.3923
        81        1.9938           -0.5266811             -14.3317
        82        1.9922           -0.5230538             -14.2330
        83        1.9908           -0.5203945             -14.1607
        84        1.9873           -0.5152876             -14.0217
        85        1.9650           -0.4990836             -13.5808
        86        1.9605           -0.4970910             -13.5265
        87        1.8770           -0.4784342             -13.0189
        88        1.7880           -0.4690492             -12.7635
        89        1.7666           -0.4673346             -12.7168
        90        1.6771           -0.4613739             -12.5546 (HOMO)
        91        1.0275           -0.4361558             -11.8684 (LUMO)
        92        0.0057           -0.3426443              -9.3238
        93        0.0020           -0.3256120              -8.8604
        94        0.0016           -0.3227188              -8.7816
        95        0.0014           -0.3205925              -8.7238
        96        0.0012           -0.3182217              -8.6593
        97        0.0000           -0.2005308              -5.4567
        98        0.0000           -0.1962581              -5.3405
        99        0.0000           -0.1770664              -4.8182
       100                         -0.1123983              -3.0585
       101                         -0.0733763              -1.9967
       ...                                ...                  ...
       171                          0.5658448              15.3974
      -------------------------------------------------------------
                  HL-Gap            0.0252181 Eh            0.6862 eV

     #   Z          covCN         q      C6AA      α(0)
     1   7 N        1.774    -0.248    27.278     7.734
     2   6 C        2.828     0.102    25.733     8.312
     3   6 C        3.907     0.012    20.317     6.407
     4   6 C        2.972     0.012    27.744     8.640
     5   6 C        2.920    -0.077    29.915     8.969
     6   6 C        2.861     0.132    25.104     8.213
     7   8 O        1.706    -0.219    17.643     5.671
     8   6 C        3.644     0.024    20.503     6.508
     9   6 C        2.863     0.133    25.081     8.209
    10   8 O        1.706    -0.216    17.588     5.662
    11   6 C        3.645     0.023    20.519     6.511
    12   6 C        2.913    -0.069    29.719     8.939
    13   6 C        2.921    -0.044    29.104     8.847
    14   6 C        3.866    -0.032    21.096     6.531
    15   6 C        3.806    -0.076    21.952     6.670
    16   6 C        3.804     0.033    20.013     6.369
    17   7 N        2.726    -0.086    22.916     7.110
    18   6 C        3.746    -0.007    20.769     6.501
    19   6 C        3.807    -0.067    21.783     6.644
    20   6 C        2.968     0.011    27.763     8.643
    21   6 C        2.921    -0.039    28.974     8.827
    22   6 C        2.912    -0.062    29.554     8.914
    23   6 C        2.864     0.138    24.984     8.193
    24   8 O        1.706    -0.208    17.468     5.643
    25   6 C        3.645     0.021    20.554     6.516
    26   6 C        2.861     0.137    25.000     8.196
    27   8 O        1.706    -0.213    17.544     5.655
    28   6 C        3.644     0.024    20.507     6.509
    29   6 C        2.919    -0.075    29.883     8.964
    30   6 C        3.695    -0.050    21.652     6.657
    31   6 C        3.852    -0.008    20.678     6.468
    32   6 C        3.757    -0.119    22.836     6.813
    33   6 C        3.756    -0.119    22.835     6.814
    34   1 H        0.926     0.062     2.177     2.307
    35   1 H        0.924     0.059     2.210     2.325
    36   1 H        0.925     0.086     1.922     2.168
    37   1 H        0.924     0.052     2.292     2.367
    38   1 H        0.924     0.060     2.197     2.318
    39   1 H        0.925     0.086     1.920     2.167
    40   1 H        0.924     0.055     2.253     2.347
    41   1 H        0.926     0.060     2.200     2.319
    42   1 H        0.926     0.050     2.323     2.384
    43   1 H        0.925     0.060     2.204     2.321
    44   1 H        0.000    -0.183    23.891     8.937
    45   1 H        0.926     0.057     2.232     2.336
    46   1 H        0.926     0.056     2.242     2.341
    47   1 H        0.924     0.043     2.406     2.426
    48   1 H        0.925     0.051     2.313     2.378
    49   1 H        0.924     0.054     2.274     2.358
    50   1 H        0.915     0.099     1.798     2.097
    51   1 H        0.924     0.054     2.274     2.358
    52   1 H        0.924     0.058     2.226     2.333
    53   1 H        0.926     0.059     2.208     2.323
    54   1 H        0.926     0.066     2.133     2.284
    55   1 H        0.924     0.062     2.177     2.307
    56   1 H        0.924     0.062     2.178     2.308
    57   1 H        0.925     0.087     1.906     2.159
    58   1 H        0.925     0.086     1.917     2.165
    59   1 H        0.924     0.055     2.264     2.353
    60   1 H        0.924     0.058     2.225     2.332
    61   1 H        0.926     0.054     2.274     2.358
    62   1 H        0.924     0.054     2.266     2.354
    63   1 H        0.925     0.061     2.182     2.310
    64   1 H        0.925     0.060     2.193     2.316
    65   1 H        0.924     0.045     2.386     2.416
    66   1 H        0.925     0.071     2.073     2.251
    67   1 H        0.925     0.038     2.482     2.464
    68   1 H        0.925     0.056     2.242     2.342
    69   1 H        0.925     0.072     2.066     2.248
    70   1 H        0.925     0.038     2.481     2.463
    71   1 H        0.925     0.059     2.212     2.326
    72   1 H        0.860     0.171     1.267     1.763

Wiberg/Mayer (AO) data.
largest (>0.10) Wiberg bond orders for each atom

     #   Z sym  total        # sym  WBO       # sym  WBO       # sym  WBO
 ---------------------------------------------------------------------------
     1   7 N    3.011 --     2 C    1.962    72 H    0.933
     2   6 C    3.925 --     1 N    1.962     3 C    0.976    47 H    0.913
     3   6 C    3.959 --     2 C    0.976     4 C    0.971    14 C    0.961
                            31 C    0.934
     4   6 C    3.926 --    13 C    1.396     5 C    1.368     3 C    0.971
     5   6 C    3.950 --     6 C    1.392     4 C    1.368    34 H    0.956
     6   6 C    3.885 --     5 C    1.392     9 C    1.208     7 O    1.111
     7   8 O    2.251 --     6 C    1.111     8 C    0.976
     8   6 C    3.926 --     7 O    0.976    36 H    0.976    37 H    0.972
                            35 H    0.971
     9   6 C    3.879 --    12 C    1.378     6 C    1.208    10 O    1.117
    10   8 O    2.252 --     9 C    1.117    11 C    0.974
    11   6 C    3.924 --    39 H    0.976    10 O    0.974    40 H    0.971
                            38 H    0.971
    12   6 C    3.950 --    13 C    1.415     9 C    1.378    41 H    0.962
    13   6 C    3.933 --    12 C    1.415     4 C    1.396    42 H    0.961
    14   6 C    3.881 --    15 C    0.966     3 C    0.961    43 H    0.957
                            16 C    0.897
    15   6 C    3.925 --    46 H    0.974    14 C    0.966    45 H    0.965
                            16 C    0.958
    16   6 C    3.902 --    17 N    1.033    15 C    0.958    48 H    0.955
                            14 C    0.897
    17   7 N    3.184 --    16 C    1.033    18 C    1.028    30 C    1.006
    18   6 C    3.825 --    17 N    1.028    49 H    0.964    19 C    0.951
                            50 H    0.810
    19   6 C    3.955 --    20 C    1.018    51 H    0.967    52 H    0.959
                            18 C    0.951
    20   6 C    3.917 --    21 C    1.383    29 C    1.382    19 C    1.018
    21   6 C    3.918 --    22 C    1.429    20 C    1.383    53 H    0.966
    22   6 C    3.943 --    21 C    1.429    23 C    1.367    54 H    0.962
    23   6 C    3.863 --    22 C    1.367    26 C    1.201    24 O    1.126
    24   8 O    2.250 --    23 C    1.126    25 C    0.973
    25   6 C    3.920 --    57 H    0.976    24 O    0.973    56 H    0.970
                            55 H    0.970
    26   6 C    3.872 --    29 C    1.386    23 C    1.201    27 O    1.117
    27   8 O    2.250 --    26 C    1.117    28 C    0.976
    28   6 C    3.925 --    58 H    0.976    27 O    0.976    59 H    0.972
                            60 H    0.971
    29   6 C    3.944 --    26 C    1.386    20 C    1.382    61 H    0.961
    30   6 C    3.955 --    17 N    1.006    64 H    0.978    63 H    0.967
                            62 H    0.962
    31   6 C    3.959 --    33 C    1.010    32 C    1.008    65 H    0.954
                             3 C    0.934
    32   6 C    3.968 --    31 C    1.008    67 H    0.979    68 H    0.978
                            66 H    0.970
    33   6 C    3.968 --    31 C    1.010    71 H    0.976    70 H    0.975
                            69 H    0.966
    34   1 H    0.994 --     5 C    0.956
    35   1 H    0.990 --     8 C    0.971
    36   1 H    0.992 --     8 C    0.976
    37   1 H    0.991 --     8 C    0.972
    38   1 H    0.989 --    11 C    0.971
    39   1 H    0.992 --    11 C    0.976
    40   1 H    0.990 --    11 C    0.971
    41   1 H    0.994 --    12 C    0.962
    42   1 H    0.996 --    13 C    0.961
    43   1 H    0.993 --    14 C    0.957
    44   1 H    0.218 --    50 H    0.155
    45   1 H    0.996 --    15 C    0.965
    46   1 H    0.991 --    15 C    0.974
    47   1 H    0.964 --     2 C    0.913
    48   1 H    0.987 --    16 C    0.955
    49   1 H    0.992 --    18 C    0.964
    50   1 H    0.984 --    18 C    0.810    44 H    0.155
    51   1 H    0.994 --    19 C    0.967
    52   1 H    0.985 --    19 C    0.959
    53   1 H    0.995 --    21 C    0.966
    54   1 H    0.993 --    22 C    0.962
    55   1 H    0.987 --    25 C    0.970
    56   1 H    0.987 --    25 C    0.970
    57   1 H    0.991 --    25 C    0.976
    58   1 H    0.992 --    28 C    0.976
    59   1 H    0.990 --    28 C    0.972
    60   1 H    0.989 --    28 C    0.971
    61   1 H    0.995 --    29 C    0.961
    62   1 H    0.974 --    30 C    0.962
    63   1 H    0.989 --    30 C    0.967
    64   1 H    0.995 --    30 C    0.978
    65   1 H    0.985 --    31 C    0.954
    66   1 H    0.987 --    32 C    0.970
    67   1 H    0.995 --    32 C    0.979
    68   1 H    0.991 --    32 C    0.978
    69   1 H    0.987 --    33 C    0.966
    70   1 H    0.995 --    33 C    0.975
    71   1 H    0.991 --    33 C    0.976
    72   1 H    0.958 --     1 N    0.933
 ---------------------------------------------------------------------------

molecular dipole:
                 x           y           z       tot (Debye)
 q only:        0.285      -0.689      -0.419
   full:        0.662      -0.839      -0.604       3.121

           -------------------------------------------------
          | TOTAL ENERGY              -99.310501484229 Eh   |
          | GRADIENT NORM               0.002949234475 Eh/α |
          | HOMO-LUMO GAP               0.686218994123 eV   |
           -------------------------------------------------

 * finished run on 2024/04/06 at 11:12:27.589
