   * xtb version 6.6.1 (8d0f1dd) compiled by 'conda@1efc2f54142f' on 2023-08-01
          program call               : xtb struc.xyz --opt loose --input .xc1 --gfn2

   ID    Z sym.   atoms
    1    7 N      1, 17
    2    6 C      2-6, 8, 9, 11-16, 18-23, 25, 26, 28-33
    3    8 O      7, 10, 24, 27
    4    1 H      34-72
constraining bond 3 68 to    5.1400000 Å, actual value:    3.4837176 Å

          :  Hamiltonian                  GFN2-xTB          :
 * total energy  :   -98.9143110 Eh     change       -0.4035485E-08 Eh
 * total energy  :   -99.0999749 Eh     change       -0.1856639E+00 Eh
 * total energy  :   -99.1845111 Eh     change       -0.8453619E-01 Eh
 * total energy  :   -99.2204301 Eh     change       -0.3591905E-01 Eh
 * total energy  :   -99.2347664 Eh     change       -0.1433620E-01 Eh
 * total energy  :   -99.2411703 Eh     change       -0.6403939E-02 Eh
 * total energy  :   -99.2453073 Eh     change       -0.4137008E-02 Eh
 * total energy  :   -99.2483350 Eh     change       -0.3027657E-02 Eh
 * total energy  :   -99.2510675 Eh     change       -0.2732515E-02 Eh
 * total energy  :   -99.2544420 Eh     change       -0.3374524E-02 Eh
 * total energy  :   -99.3360483 Eh     change       -0.9517431E-04 Eh
 * total energy  :   -99.3361357 Eh     change       -0.8739039E-04 Eh
 * total energy  :   -99.3362203 Eh     change       -0.8461979E-04 Eh
 * total energy  :   -99.3363121 Eh     change       -0.9179775E-04 Eh
 * total energy  :   -99.3364104 Eh     change       -0.9829108E-04 Eh
 * total energy  :   -99.3365029 Eh     change       -0.9251276E-04 Eh
 * total energy  :   -99.3365795 Eh     change       -0.7659028E-04 Eh
 * total energy  :   -99.3366587 Eh     change       -0.7915283E-04 Eh
 * total energy  :   -99.3366992 Eh     change       -0.4055077E-04 Eh
   *** GEOMETRY OPTIMIZATION CONVERGED AFTER 57 ITERATIONS ***

 final structure:
================
72
 xtb: 6.6.1 (8d0f1dd)
N           -1.24846774516182        1.64756812364047        2.08200368929924
C           -1.39727838065014        2.01745822534364        0.85883556072026
C           -2.28413114243212        1.45608225997986       -0.08596009245737
C           -3.13855856172396        0.34227887524586        0.17269787150509
C           -3.99196841430223       -0.19270379096384       -0.82171135613851
C           -4.77712814241655       -1.30088846067521       -0.58798582257410
O           -5.61431556187787       -1.86889253199124       -1.48839151871430
C           -5.76180765231755       -1.28003514841731       -2.75720622604337
C           -4.73912444646134       -1.94789057522002        0.67942241477037
O           -5.51309440725856       -3.04332943895994        0.79805810735220
C           -5.51806605951594       -3.75075061774746        2.01598161278786
C           -3.92448901817875       -1.41045721195451        1.67099827829300
C           -3.15007412855469       -0.29560828465839        1.42904516178556
C           -2.19232062016986        2.02987913195057       -1.46985702064845
C           -1.26343468774129        1.16282970552953       -2.37354223999412
C            0.11539895728843        1.18006296693624       -1.85232514626280
N            0.66577232510919        0.23233206115001       -1.11200527172680
C            2.02400445093366        0.37483628214778       -0.64599562751728
C            3.03202353541642       -0.27359163271504       -1.61504890537475
C            4.42888863800166       -0.10232660385289       -1.08865923926911
C            5.13018578847651        1.07027548296616       -1.31639117484656
C            6.40383555366383        1.24742930337668       -0.79832460608562
C            7.00175593109367        0.25289938611754       -0.03815885742969
O            8.22833318192485        0.31726725177397        0.51535190230540
C            9.00720514898596        1.47538238453988        0.32396969899739
C            6.29147648669513       -0.95561319469541        0.19767794833173
O            6.94740449209382       -1.87295109927025        0.93799983853301
C            6.33559310608532       -3.11441679329191        1.19298081286785
C            5.01783151377432       -1.10801548017995       -0.32642010949740
C            0.01276039589878       -1.03278637053487       -0.87124985453652
C           -5.18402893889848        2.84250087762303        1.31829325419541
C           -5.33481455642035        2.17026539467786        2.61150599163130
C           -4.34025547162007        4.02758748155122        1.13701739710314
H           -4.04329635997971        0.27342136027799       -1.79035824881217
H           -6.13257509214400       -0.25201232558772       -2.68338017855153
H           -6.49724901663176       -1.88954006937486       -3.27878680384324
H           -4.82200536516064       -1.29059809907765       -3.31993305342521
H           -5.89980876535278       -3.13485581919015        2.83622296169327
H           -6.18435784194848       -4.59778655078096        1.86158144056614
H           -4.51870159306043       -4.11807533554239        2.26980456697354
H           -3.88889570555440       -1.86661063239130        2.64755676452220
H           -2.51737338902854        0.10539184280181        2.20460897238445
H           -3.17044366037546        2.09157450499704       -1.94520646490749
H           -1.78292821787728        3.04073658350538       -1.43035567522858
H           -1.66411293080759        0.15215021320824       -2.42428894802754
H           -1.26962764588868        1.60002304374497       -3.37453876840382
H           -0.80071655887541        2.85138081143731        0.45918520243977
H            0.69408250237215        2.08026396724027       -1.99151302535076
H            2.11145621223101       -0.09016721893260        0.33834798337414
H            2.26326447205696        1.43494744396711       -0.54298649751763
H            2.93695014731775        0.20671078189751       -2.59051172947405
H            2.79955712985378       -1.33309935471128       -1.72776899090036
H            4.69095255938775        1.85603082149416       -1.91213750406429
H            6.92679864041117        2.16843064201524       -0.99712917443334
H            8.52128166995321        2.35955712329701        0.74819189729692
H            9.21747598021990        1.64675963889478       -0.73607710570511
H            9.94095536145431        1.28948843099552        0.85129078061011
H            7.05477915702870       -3.67882308781023        1.78314539875096
H            5.41094178719290       -2.99664171856426        1.76715047613997
H            6.12457485038443       -3.65586268658296        0.26544909859003
H            4.47154014268719       -2.02257131424242       -0.15665601382716
H           -0.14843765066657       -1.57533989208729       -1.80563488950505
H           -0.94948572194933       -0.87922758759503       -0.38049156695270
H            0.63613591606947       -1.64109526753602       -0.22169497513682
H           -5.75903410529501        2.47161226938166        0.48533603188818
H           -4.72494078787662        2.63589575818798        3.38062170904358
H           -5.05261249868544        1.11601011377887        2.52382364680433
H           -6.38302455359265        2.17578023767744        2.92886933700218
H           -3.42803809293935        3.94696260519549        1.72894537522011
H           -4.09294988352657        4.19129090197417        0.09096078749665
H           -4.86218493120618        4.92407221333636        1.49447319180049
H           -0.57054213262676        2.17127721373683        2.62254236279317

          :  Hamiltonian                  GFN2-xTB          :
         :: total energy             -99.336699230954 Eh    ::
         :: gradient norm              0.002565710014 Eh/a0 ::
         :: HOMO-LUMO gap              0.466946288458 eV    ::
         :: SCC energy              -100.731057564574 Eh    ::
         :: -> dispersion             -0.072453578560 Eh    ::
         :: repulsion energy           1.392970757025 Eh    ::

    * Orbital Energies and Occupations

         #    Occupation            Energy/Eh            Energy/eV
      -------------------------------------------------------------
         1        2.0000           -0.8030348             -21.8517
       ...           ...                  ...                  ...
        78        1.9993           -0.5335926             -14.5198
        79        1.9990           -0.5284208             -14.3791
        80        1.9988           -0.5254086             -14.2971
        81        1.9987           -0.5240673             -14.2606
        82        1.9985           -0.5215235             -14.1914
        83        1.9974           -0.5132270             -13.9656
        84        1.9964           -0.5079610             -13.8223
        85        1.9868           -0.4873209             -13.2607
        86        1.9808           -0.4813236             -13.0975
        87        1.9334           -0.4612743             -12.5519
        88        1.8793           -0.4514173             -12.2837
        89        1.8604           -0.4489502             -12.2166
        90        1.2484           -0.4159819             -11.3194 (HOMO)
        91        0.7196           -0.3988219             -10.8525 (LUMO)
        92        0.3957           -0.3857825             -10.4977
        93        0.0051           -0.3135295              -8.5316
        94        0.0030           -0.3050095              -8.2997
        95        0.0026           -0.3027890              -8.2393
        96        0.0025           -0.3018159              -8.2128
        97        0.0001           -0.2479291              -6.7465
        98        0.0000           -0.1800045              -4.8982
        99        0.0000           -0.1669988              -4.5443
       100                         -0.1221944              -3.3251
       101                         -0.0585762              -1.5939
       ...                                ...                  ...
       171                          0.5914837              16.0951
      -------------------------------------------------------------
                  HL-Gap            0.0171600 Eh            0.4669 eV

     #   Z          covCN         q      C6AA      α(0)
     1   7 N        1.776    -0.335    29.523     8.046
     2   6 C        2.824     0.069    26.441     8.426
     3   6 C        2.955    -0.035    28.860     8.811
     4   6 C        2.965     0.006    27.895     8.663
     5   6 C        2.919    -0.089    30.240     9.018
     6   6 C        2.859     0.127    25.211     8.230
     7   8 O        1.706    -0.239    17.964     5.722
     8   6 C        3.644     0.031    20.386     6.490
     9   6 C        2.864     0.130    25.160     8.222
    10   8 O        1.706    -0.224    17.717     5.683
    11   6 C        3.645     0.027    20.457     6.500
    12   6 C        2.910    -0.071    29.771     8.947
    13   6 C        2.922    -0.059    29.465     8.902
    14   6 C        3.811    -0.060    21.652     6.623
    15   6 C        3.803    -0.065    21.752     6.640
    16   6 C        2.848     0.007    27.847     8.649
    17   7 N        2.729     0.026    20.790     6.772
    18   6 C        3.758    -0.019    20.959     6.527
    19   6 C        3.808    -0.070    21.835     6.652
    20   6 C        2.969    -0.001    28.038     8.685
    21   6 C        2.922    -0.050    29.230     8.866
    22   6 C        2.914    -0.068    29.694     8.936
    23   6 C        2.865     0.132    25.104     8.213
    24   8 O        1.706    -0.225    17.733     5.686
    25   6 C        3.645     0.026    20.470     6.502
    26   6 C        2.863     0.132    25.106     8.213
    27   8 O        1.706    -0.227    17.770     5.692
    28   6 C        3.645     0.028    20.440     6.498
    29   6 C        2.920    -0.080    29.990     8.980
    30   6 C        3.700    -0.073    22.067     6.718
    31   6 C        2.883    -0.013    28.333     8.726
    32   6 C        3.753    -0.115    22.757     6.803
    33   6 C        3.753    -0.110    22.659     6.788
    34   1 H        0.926     0.044     2.390     2.418
    35   1 H        0.924     0.047     2.360     2.402
    36   1 H        0.925     0.078     2.002     2.213
    37   1 H        0.924     0.044     2.402     2.424
    38   1 H        0.924     0.054     2.273     2.358
    39   1 H        0.925     0.080     1.982     2.202
    40   1 H        0.924     0.052     2.290     2.366
    41   1 H        0.926     0.051     2.305     2.374
    42   1 H        0.926     0.091     1.866     2.136
    43   1 H        0.925     0.054     2.265     2.354
    44   1 H        0.924     0.044     2.398     2.421
    45   1 H        0.925     0.063     2.166     2.301
    46   1 H        0.924     0.070     2.088     2.260
    47   1 H        0.923    -0.009     3.211     2.802
    48   1 H        0.926     0.068     2.110     2.271
    49   1 H        0.924     0.071     2.070     2.250
    50   1 H        0.924     0.069     2.099     2.266
    51   1 H        0.924     0.055     2.259     2.351
    52   1 H        0.924     0.055     2.264     2.353
    53   1 H        0.926     0.044     2.402     2.424
    54   1 H        0.926     0.057     2.237     2.339
    55   1 H        0.924     0.053     2.288     2.366
    56   1 H        0.924     0.054     2.267     2.355
    57   1 H        0.925     0.081     1.972     2.196
    58   1 H        0.925     0.080     1.976     2.198
    59   1 H        0.924     0.048     2.346     2.395
    60   1 H        0.924     0.051     2.303     2.373
    61   1 H        0.926     0.047     2.360     2.402
    62   1 H        0.924     0.075     2.027     2.227
    63   1 H        0.924     0.089     1.889     2.150
    64   1 H        0.925     0.080     1.981     2.201
    65   1 H        0.926     0.051     2.304     2.374
    66   1 H        0.925     0.068     2.108     2.271
    67   1 H        0.924     0.084     1.938     2.177
    68   1 H        0.924     0.083     1.945     2.181
    69   1 H        0.924     0.073     2.051     2.240
    70   1 H        0.925     0.058     2.217     2.328
    71   1 H        0.924     0.091     1.866     2.136
    72   1 H        0.860     0.137     1.490     1.912

Wiberg/Mayer (AO) data.
largest (>0.10) Wiberg bond orders for each atom

     #   Z sym  total        # sym  WBO       # sym  WBO       # sym  WBO
 ---------------------------------------------------------------------------
     1   7 N    2.750 --     2 C    1.659    72 H    0.951
     2   6 C    3.934 --     1 N    1.659     3 C    1.274    47 H    0.934
     3   6 C    3.656 --     2 C    1.274     4 C    1.235    14 C    1.027
     4   6 C    3.959 --    13 C    1.287     5 C    1.273     3 C    1.235
     5   6 C    3.905 --     6 C    1.445     4 C    1.273    34 H    0.956
     6   6 C    3.901 --     5 C    1.445     9 C    1.204     7 O    1.085
     7   8 O    2.241 --     6 C    1.085     8 C    0.982
     8   6 C    3.937 --     7 O    0.982    36 H    0.977    35 H    0.974
                            37 H    0.974
     9   6 C    3.823 --    12 C    1.352     6 C    1.204    10 O    1.109
    10   8 O    2.240 --     9 C    1.109    11 C    0.977
    11   6 C    3.931 --    10 O    0.977    39 H    0.977    40 H    0.973
                            38 H    0.973
    12   6 C    3.963 --    13 C    1.467     9 C    1.352    41 H    0.963
    13   6 C    3.851 --    12 C    1.467     4 C    1.287    42 H    0.940
    14   6 C    3.958 --     3 C    1.027    44 H    0.972    43 H    0.960
                            15 C    0.925
    15   6 C    3.970 --    16 C    1.069    45 H    0.967    46 H    0.954
                            14 C    0.925
    16   6 C    3.578 --    17 N    1.430    15 C    1.069    48 H    0.960
    17   7 N    3.489 --    16 C    1.430    30 C    0.997    18 C    0.989
    18   6 C    3.955 --    17 N    0.989    50 H    0.967    19 C    0.966
                            49 H    0.964
    19   6 C    3.976 --    20 C    1.008    52 H    0.973    51 H    0.971
                            18 C    0.966
    20   6 C    3.948 --    21 C    1.411    29 C    1.380    19 C    1.008
    21   6 C    3.953 --    22 C    1.416    20 C    1.411    53 H    0.968
    22   6 C    3.962 --    21 C    1.416    23 C    1.385    54 H    0.963
    23   6 C    3.898 --    22 C    1.385    26 C    1.224    24 O    1.106
    24   8 O    2.254 --    23 C    1.106    25 C    0.977
    25   6 C    3.930 --    57 H    0.977    24 O    0.977    55 H    0.973
                            56 H    0.973
    26   6 C    3.902 --    29 C    1.396    23 C    1.224    27 O    1.100
    27   8 O    2.253 --    26 C    1.100    28 C    0.979
    28   6 C    3.933 --    27 O    0.979    58 H    0.977    59 H    0.974
                            60 H    0.974
    29   6 C    3.961 --    26 C    1.396    20 C    1.380    61 H    0.962
    30   6 C    3.955 --    17 N    0.997    64 H    0.978    62 H    0.965
                            63 H    0.960
    31   6 C    3.254 --    32 C    1.117    33 C    1.112    65 H    0.973
    32   6 C    3.975 --    31 C    1.117    66 H    0.981    68 H    0.930
                            67 H    0.923
    33   6 C    3.980 --    31 C    1.112    70 H    0.975    69 H    0.955
                            71 H    0.914
    34   1 H    0.997 --     5 C    0.956
    35   1 H    0.995 --     8 C    0.974
    36   1 H    0.993 --     8 C    0.977
    37   1 H    0.995 --     8 C    0.974
    38   1 H    0.991 --    11 C    0.973
    39   1 H    0.993 --    11 C    0.977
    40   1 H    0.992 --    11 C    0.973
    41   1 H    0.995 --    12 C    0.963
    42   1 H    0.989 --    13 C    0.940
    43   1 H    0.989 --    14 C    0.960
    44   1 H    0.995 --    14 C    0.972
    45   1 H    0.994 --    15 C    0.967
    46   1 H    0.984 --    15 C    0.954
    47   1 H    0.975 --     2 C    0.934
    48   1 H    0.995 --    16 C    0.960
    49   1 H    0.991 --    18 C    0.964
    50   1 H    0.994 --    18 C    0.967
    51   1 H    0.995 --    19 C    0.971
    52   1 H    0.996 --    19 C    0.973
    53   1 H    0.998 --    21 C    0.968
    54   1 H    0.995 --    22 C    0.963
    55   1 H    0.992 --    25 C    0.973
    56   1 H    0.992 --    25 C    0.973
    57   1 H    0.993 --    25 C    0.977
    58   1 H    0.993 --    28 C    0.977
    59   1 H    0.994 --    28 C    0.974
    60   1 H    0.993 --    28 C    0.974
    61   1 H    0.997 --    29 C    0.962
    62   1 H    0.985 --    30 C    0.965
    63   1 H    0.985 --    30 C    0.960
    64   1 H    0.993 --    30 C    0.978
    65   1 H    0.997 --    31 C    0.973
    66   1 H    0.995 --    32 C    0.981
    67   1 H    0.953 --    32 C    0.923
    68   1 H    0.953 --    32 C    0.930
    69   1 H    0.975 --    33 C    0.955
    70   1 H    0.990 --    33 C    0.975
    71   1 H    0.938 --    33 C    0.914
    72   1 H    0.972 --     1 N    0.951
 ---------------------------------------------------------------------------

molecular dipole:
                 x           y           z       tot (Debye)
 q only:       -0.650       0.746      -0.487
   full:       -0.540       1.185      -0.774       3.850

           -------------------------------------------------
          | TOTAL ENERGY              -99.336699230954 Eh   |
          | GRADIENT NORM               0.002565710014 Eh/α |
          | HOMO-LUMO GAP               0.466946288458 eV   |
           -------------------------------------------------

 * finished run on 2024/04/06 at 11:12:07.792
