   * xtb version 6.6.1 (8d0f1dd) compiled by 'conda@1efc2f54142f' on 2023-08-01
          program call               : xtb struc.xyz --opt loose --input .xc1 --gfn2

   ID    Z sym.   atoms
    1    6 C      1, 3, 5-7, 10, 11, 14
    2    7 N      2, 4, 9, 13
    3    8 O      8, 12
    4    1 H      15-25
constraining bond 4 16 to    4.6866700 Å, actual value:    3.9838146 Å

          :  Hamiltonian                  GFN2-xTB          :
 * total energy  :   -43.1299215 Eh     change       -0.6650680E-10 Eh
 * total energy  :   -45.7361174 Eh     change       -0.2606196E+01 Eh
 * total energy  :   -49.8117936 Eh     change       -0.4075676E+01 Eh
 * total energy  :   -55.5134136 Eh     change       -0.5701620E+01 Eh
 * total energy  :   -63.1984232 Eh     change       -0.7685010E+01 Eh
 * total energy  :   -71.4002227 Eh     change       -0.8201800E+01 Eh
 * total energy  :   -67.9417130 Eh     change        0.3458510E+01 Eh
 * total energy  :   -72.1345329 Eh     change       -0.4192820E+01 Eh
 * total energy  :   -72.2742599 Eh     change       -0.1397269E+00 Eh
 * total energy  :   -72.3256220 Eh     change       -0.5136208E-01 Eh
 * total energy  :   -72.8715991 Eh     change       -0.1155609E-03 Eh
 * total energy  :   -72.8716293 Eh     change       -0.3023307E-04 Eh
 * total energy  :   -72.8716495 Eh     change       -0.2023123E-04 Eh
 * total energy  :   -72.8716988 Eh     change       -0.4924915E-04 Eh
 * total energy  :   -72.8717188 Eh     change       -0.2001014E-04 Eh
 * total energy  :   -72.8717672 Eh     change       -0.4844927E-04 Eh
 * total energy  :   -72.8717924 Eh     change       -0.2520824E-04 Eh
 * total energy  :   -72.8718170 Eh     change       -0.2456763E-04 Eh
 * total energy  :   -72.8718298 Eh     change       -0.1278210E-04 Eh
   *** GEOMETRY OPTIMIZATION CONVERGED AFTER 91 ITERATIONS ***

 final structure:
================
25
 xtb: 6.6.1 (8d0f1dd)
C            2.82781507878593        1.15980744119036        0.60139721778186
N            2.22687944178613        0.14681498315615        0.02894248996639
C            2.96718504357072       -0.73922833225005       -0.82373508646145
N            4.20296443840481       -0.69121223354271       -0.93062382034600
C            0.22319286265559       -1.22812639607438        0.21772782671807
C            0.83407601962063       -0.01375660011682        0.11126868222870
C            0.02548437184246        1.20981238706280        0.00750423169258
O            0.51139173438419        2.31698415510880       -0.06432091487169
N           -1.33422155920155        0.98378624792514       -0.02198236874724
C           -2.22222656780729        2.12849684333914       -0.15504272792766
C           -1.96133675169908       -0.24347279735790        0.09183832509393
O           -3.15514865427911       -0.35762180484961        0.08306762432045
N           -1.11222139440345       -1.35346664371636        0.22090702512020
C           -1.72832301153910       -2.65697829171329        0.36654500079579
H            3.86847952164901        1.33314691439838        0.37523691570468
H            4.60208807479692       -0.69320450791430       -0.98863731367185
H            2.30677245311900        1.81594961041384        1.27453838017143
H            2.30536431528395       -1.43240278269510       -1.34760981426783
H           -1.61462902706765        3.02530391223188       -0.24919785428674
H           -2.85334672962424        2.00146983875647       -1.03470206869438
H           -2.86835848494554        2.19799781014635        0.72045560919148
H           -1.49519812867861       -3.08083792676942        1.34381772744596
H           -1.37676741736739       -3.33201486371192       -0.41323853012594
H           -2.80716339539404       -2.53513519722046        0.27925147860669
H            0.78767928020340       -2.14387322419220        0.33776358246097

          :  Hamiltonian                  GFN2-xTB          :
         :: total energy             -72.871829784999 Eh    ::
         :: gradient norm              0.003576530621 Eh/a0 ::
         :: HOMO-LUMO gap              1.766544475611 eV    ::
         :: SCC energy               -42.740347135579 Eh    ::
         :: -> dispersion             -0.021964185962 Eh    ::
         :: repulsion energy           2.627695234081 Eh    ::

    * Orbital Energies and Occupations

         #    Occupation            Energy/Eh            Energy/eV
      -------------------------------------------------------------
         1        2.0000           -0.8860222             -24.1099
       ...           ...                  ...                  ...
        25        1.9999           -0.6773742             -18.4323
        26        1.9999           -0.6672284             -18.1562
        27        1.9997           -0.6538754             -17.7929
        28        1.9995           -0.6468035             -17.6004
        29        1.9992           -0.6384950             -17.3743
        30        1.9983           -0.6278195             -17.0838
        31        1.9982           -0.6263956             -17.0451
        32        1.9949           -0.6100932             -16.6015
        33        1.9770           -0.5860147             -15.9463
        34        1.9614           -0.5776564             -15.7188
        35        1.9488           -0.5730957             -15.5947
        36        1.9299           -0.5679574             -15.4549
        37        1.8465           -0.5548564             -15.0984 (HOMO)
        38        0.3324           -0.4899371             -13.3319 (LUMO)
        39        0.0125           -0.4352152             -11.8428
        40        0.0018           -0.4042476             -11.0001
        41        0.0004           -0.3804149             -10.3516
        42        0.0000           -0.3037214              -8.2647
        43                         -0.2062820              -5.6132
        44                         -0.1577915              -4.2937
        45                         -0.1329979              -3.6191
        46                         -0.0888309              -2.4172
        47                         -0.0723639              -1.9691
        48                         -0.0285800              -0.7777
       ...                                ...                  ...
        67                          7.1913269             195.6860
      -------------------------------------------------------------
                  HL-Gap            0.0649193 Eh            1.7665 eV

     #   Z          covCN         q      C6AA      α(0)
     1   6 C        2.810    -0.007    28.187     8.698
     2   7 N        2.739     0.086    19.751     6.601
     3   6 C        2.824     0.109    25.574     8.286
     4   7 N        1.778    -0.244    27.192     7.722
     5   6 C        2.856     0.023    27.495     8.594
     6   6 C        2.922    -0.014    28.369     8.735
     7   6 C        2.772     0.270    22.446     7.759
     8   8 O        0.858    -0.364    20.969     6.140
     9   7 N        2.742    -0.066    22.518     7.048
    10   6 C        3.708    -0.063    21.858     6.682
    11   6 C        2.724     0.316    21.622     7.612
    12   8 O        0.859    -0.345    20.602     6.086
    13   7 N        2.743    -0.011    21.462     6.881
    14   6 C        3.703    -0.079    22.170     6.732
    15   1 H        0.926     0.137     1.482     1.904
    16   1 H        0.912     0.263     0.830     1.425
    17   1 H        0.926     0.145     1.423     1.866
    18   1 H        0.924     0.087     1.904     2.158
    19   1 H        0.925     0.116     1.648     2.008
    20   1 H        0.925     0.107     1.726     2.055
    21   1 H        0.924     0.107     1.727     2.055
    22   1 H        0.924     0.099     1.792     2.094
    23   1 H        0.925     0.097     1.815     2.107
    24   1 H        0.925     0.127     1.556     1.951
    25   1 H        0.925     0.103     1.755     2.072

Wiberg/Mayer (AO) data.
largest (>0.10) Wiberg bond orders for each atom

     #   Z sym  total        # sym  WBO       # sym  WBO       # sym  WBO
 ---------------------------------------------------------------------------
     1   6 C    3.598 --     2 N    1.501    15 H    0.954    17 H    0.954
     2   7 N    3.659 --     1 C    1.501     6 C    1.045     3 C    0.989
     3   6 C    3.887 --     4 N    1.933     2 N    0.989    18 H    0.919
     4   7 N    3.014 --     3 C    1.933    16 H    0.924
     5   6 C    3.927 --     6 C    1.520    13 N    1.286    25 H    0.948
     6   6 C    3.883 --     5 C    1.520     2 N    1.045     7 C    1.039
     7   6 C    3.953 --     8 O    1.671     9 N    1.135     6 C    1.039
     8   8 O    2.026 --     7 C    1.671     9 N    0.138
     9   7 N    3.554 --     7 C    1.135    11 C    1.111    10 C    0.971
                             8 O    0.138    12 O    0.131
    10   6 C    3.897 --     9 N    0.971    19 H    0.966    20 H    0.956
                            21 H    0.955
    11   6 C    3.957 --    12 O    1.704     9 N    1.111    13 N    1.052
    12   8 O    2.034 --    11 C    1.704     9 N    0.131    13 N    0.109
    13   7 N    3.591 --     5 C    1.286    11 C    1.052    14 C    0.978
                            12 O    0.109
    14   6 C    3.910 --    13 N    0.978    23 H    0.964    24 H    0.963
                            22 H    0.961
    15   1 H    0.980 --     1 C    0.954
    16   1 H    0.931 --     4 N    0.924
    17   1 H    0.977 --     1 C    0.954
    18   1 H    0.968 --     3 C    0.919
    19   1 H    0.983 --    10 C    0.966
    20   1 H    0.977 --    10 C    0.956
    21   1 H    0.977 --    10 C    0.955
    22   1 H    0.980 --    14 C    0.961
    23   1 H    0.982 --    14 C    0.964
    24   1 H    0.982 --    14 C    0.963
    25   1 H    0.987 --     5 C    0.948
 ---------------------------------------------------------------------------

molecular dipole:
                 x           y           z       tot (Debye)
 q only:        1.986      -1.164       0.198
   full:        2.143      -1.353       0.202       6.463

           -------------------------------------------------
          | TOTAL ENERGY              -72.871829784999 Eh   |
          | GRADIENT NORM               0.003576530621 Eh/α |
          | HOMO-LUMO GAP               1.766544475611 eV   |
           -------------------------------------------------

 * finished run on 2024/06/05 at 19:59:11.676
