   * xtb version 6.6.1 (8d0f1dd) compiled by 'conda@1efc2f54142f' on 2023-08-01
          program call               : xtb struc.xyz --opt loose --input .xc1 --gfn2

   ID    Z sym.   atoms
    1    6 C      1, 3, 5-7, 10, 11, 14
    2    7 N      2, 4, 9, 13
    3    8 O      8, 12
    4    1 H      15-25
constraining bond 13 23 to    4.0600000 Å, actual value:    2.0982917 Å

          :  Hamiltonian                  GFN2-xTB          :
 * total energy  :   -35.3765964 Eh     change       -0.6650680E-10 Eh
 * total energy  :   -38.4003804 Eh     change       -0.3023784E+01 Eh
 * total energy  :   -40.5862342 Eh     change       -0.2185854E+01 Eh
 * total energy  :   -41.6010028 Eh     change       -0.1014769E+01 Eh
 * total energy  :   -41.8715308 Eh     change       -0.2705280E+00 Eh
 * total energy  :   -41.8999631 Eh     change       -0.2843238E-01 Eh
 * total energy  :   -41.9146008 Eh     change       -0.1463763E-01 Eh
 * total energy  :   -41.9422088 Eh     change       -0.2760800E-01 Eh
 * total energy  :   -41.9637554 Eh     change       -0.2154660E-01 Eh
 * total energy  :   -41.9746687 Eh     change       -0.1091332E-01 Eh
 * total energy  :   -42.1013325 Eh     change       -0.1450534E-02 Eh
 * total energy  :   -42.1024045 Eh     change       -0.1071928E-02 Eh
 * total energy  :   -42.1029023 Eh     change       -0.4978676E-03 Eh
 * total energy  :   -42.1031504 Eh     change       -0.2480739E-03 Eh
 * total energy  :   -42.1030678 Eh     change        0.8262624E-04 Eh
 * total energy  :   -42.1033757 Eh     change       -0.3078632E-03 Eh
 * total energy  :   -42.1034371 Eh     change       -0.6148566E-04 Eh
 * total energy  :   -42.1035183 Eh     change       -0.8118583E-04 Eh
 * total energy  :   -42.1035461 Eh     change       -0.2776222E-04 Eh
   *** GEOMETRY OPTIMIZATION CONVERGED AFTER 32 ITERATIONS ***

 final structure:
================
25
 xtb: 6.6.1 (8d0f1dd)
C            3.23156984507141        1.18947950990326       -0.00822430614099
N            2.27680333425225        0.11277679605061        0.02368461706740
C            2.54516780809485       -1.18741109597932        0.05645214385690
N            1.39792688369584       -1.89611212212730        0.11118629651686
C            0.35328373581109       -1.00481855088131        0.10852281563292
C            0.91149030406550        0.26640644362309        0.05363962981756
C            0.10354956815536        1.46662943600976        0.02331493359357
O            0.51993229154478        2.60128609154214       -0.01302871194906
N           -1.26106322019685        1.15611531402925        0.03631788194169
C           -2.19776143352403        2.27548002391515       -0.01127486032659
C           -1.85750157413537       -0.07288782389256        0.07380803112272
O           -3.04088035381478       -0.24404936364811        0.05705408540535
N           -0.98020843960224       -1.23922379201760        0.14656546612170
C           -1.55974133909735       -2.44361424723834        0.24556699167563
H            3.75307460889592        1.25923052486850        0.94779550200934
H            3.96463894884346        1.02300701036794       -0.79681731427100
H            2.70162598509872        2.12446148310791       -0.18789782086568
H            3.52638264989723       -1.62118695142955        0.04272823601219
H           -1.62129961923532        3.19710656828985       -0.00504971093357
H           -2.80101077252602        2.21208414260790       -0.91589914582037
H           -2.86078319292309        2.23719966828005        0.85169265253696
H           -0.97105643578041       -3.33706845241811        0.31555590276261
H           -1.67432105778302       -4.87971747751897       -1.51040144059900
H           -2.63280776996602       -2.47264049182823        0.25827531257915
H            1.33342075925805       -2.90429410201591        0.12760443015375

          :  Hamiltonian                  GFN2-xTB          :
         :: total energy             -42.103546088420 Eh    ::
         :: gradient norm              0.002771178710 Eh/a0 ::
         :: HOMO-LUMO gap              0.292592421022 eV    ::
         :: SCC energy               -42.626878681276 Eh    ::
         :: -> dispersion             -0.022711808806 Eh    ::
         :: repulsion energy           0.523237723347 Eh    ::

    * Orbital Energies and Occupations

         #    Occupation            Energy/Eh            Energy/eV
      -------------------------------------------------------------
         1        2.0000           -0.9209955             -25.0616
       ...           ...                  ...                  ...
        25        2.0000           -0.6725782             -18.3018
        26        2.0000           -0.6722783             -18.2936
        27        2.0000           -0.6631625             -18.0456
        28        1.9999           -0.6389636             -17.3871
        29        1.9998           -0.6351669             -17.2838
        30        1.9998           -0.6314145             -17.1817
        31        1.9996           -0.6230145             -16.9531
        32        1.9985           -0.6018879             -16.3782
        33        1.9975           -0.5937541             -16.1569
        34        1.9966           -0.5890122             -16.0278
        35        1.9875           -0.5681157             -15.4592
        36        1.9860           -0.5663612             -15.4115
        37        1.1338           -0.4921791             -13.3929 (HOMO)
        38        0.7979           -0.4814266             -13.1003 (LUMO)
        39        0.0921           -0.4399241             -11.9709
        40        0.0094           -0.4030695             -10.9681
        41        0.0019           -0.3773562             -10.2684
        42        0.0000           -0.2926097              -7.9623
        43                         -0.2174992              -5.9185
        44                         -0.2046139              -5.5678
        45                         -0.1547086              -4.2098
        46                         -0.1388423              -3.7781
        47                         -0.0718956              -1.9564
        48                         -0.0436405              -1.1875
       ...                                ...                  ...
        67                          0.5542458              15.0818
      -------------------------------------------------------------
                  HL-Gap            0.0107526 Eh            0.2926 eV

     #   Z          covCN         q      C6AA      α(0)
     1   6 C        3.691    -0.097    22.543     6.794
     2   7 N        2.831     0.087    19.736     6.598
     3   6 C        3.051     0.055    26.712     8.476
     4   7 N        2.789    -0.055    22.308     7.015
     5   6 C        3.038     0.094    25.888     8.345
     6   6 C        3.114    -0.015    28.237     8.705
     7   6 C        2.763     0.268    22.482     7.765
     8   8 O        0.858    -0.362    20.932     6.134
     9   7 N        2.744    -0.077    22.742     7.083
    10   6 C        3.714    -0.065    21.879     6.683
    11   6 C        2.734     0.311    21.713     7.629
    12   8 O        0.859    -0.333    20.393     6.055
    13   7 N        2.735     0.010    21.082     6.819
    14   6 C        2.797    -0.053    29.298     8.867
    15   1 H        0.924     0.112     1.682     2.028
    16   1 H        0.925     0.108     1.715     2.048
    17   1 H        0.925     0.140     1.464     1.892
    18   1 H        0.926     0.130     1.537     1.939
    19   1 H        0.925     0.117     1.637     2.001
    20   1 H        0.925     0.100     1.788     2.091
    21   1 H        0.925     0.100     1.784     2.089
    22   1 H        0.926     0.095     1.836     2.119
    23   1 H        0.000    -0.036     9.366     5.596
    24   1 H        0.926     0.137     1.481     1.903
    25   1 H        0.860     0.232     0.958     1.533

Wiberg/Mayer (AO) data.
largest (>0.10) Wiberg bond orders for each atom

     #   Z sym  total        # sym  WBO       # sym  WBO       # sym  WBO
 ---------------------------------------------------------------------------
     1   6 C    3.911 --     2 N    0.984    16 H    0.962    17 H    0.959
                            15 H    0.954
     2   7 N    3.676 --     3 C    1.388     6 C    1.166     1 C    0.984
     3   6 C    3.847 --     2 N    1.388     4 N    1.290    18 H    0.951
     4   7 N    3.558 --     3 C    1.290     5 C    1.168    25 H    0.917
     5   6 C    3.887 --     6 C    1.342     4 N    1.168    13 N    1.162
     6   6 C    3.859 --     5 C    1.342     2 N    1.166     7 C    1.072
     7   6 C    3.917 --     8 O    1.679     9 N    1.081     6 C    1.072
     8   8 O    1.992 --     7 C    1.679     9 N    0.138
     9   7 N    3.569 --    11 C    1.171     7 C    1.081    10 C    0.962
                            12 O    0.151     8 O    0.138
    10   6 C    3.909 --    19 H    0.967    21 H    0.966    20 H    0.965
                             9 N    0.962
    11   6 C    3.925 --    12 O    1.732     9 N    1.171    13 N    0.928
    12   8 O    2.061 --    11 C    1.732     9 N    0.151
    13   7 N    3.624 --    14 C    1.309     5 C    1.162    11 C    0.928
    14   6 C    3.357 --    13 N    1.309    22 H    0.965    24 H    0.957
    15   1 H    0.984 --     1 C    0.954
    16   1 H    0.986 --     1 C    0.962
    17   1 H    0.980 --     1 C    0.959
    18   1 H    0.982 --     3 C    0.951
    19   1 H    0.985 --    10 C    0.967
    20   1 H    0.986 --    10 C    0.965
    21   1 H    0.986 --    10 C    0.966
    22   1 H    0.990 --    14 C    0.965
    23   1 H    0.027
    24   1 H    0.980 --    14 C    0.957
    25   1 H    0.946 --     4 N    0.917
 ---------------------------------------------------------------------------

molecular dipole:
                 x           y           z       tot (Debye)
 q only:        2.640      -1.458       0.287
   full:        2.902      -2.052       0.298       9.066

           -------------------------------------------------
          | TOTAL ENERGY              -42.103546088420 Eh   |
          | GRADIENT NORM               0.002771178710 Eh/α |
          | HOMO-LUMO GAP               0.292592421022 eV   |
           -------------------------------------------------

 * finished run on 2024/06/05 at 19:58:06.709
