   * xtb version 6.6.1 (8d0f1dd) compiled by 'conda@1efc2f54142f' on 2023-08-01
          program call               : xtb struc.xyz --opt loose --input .xc1 --gfn2

   ID    Z sym.   atoms
    1    6 C      1, 3, 5-7, 10, 11, 14
    2    7 N      2, 4, 9, 13
    3    8 O      8, 12
    4    1 H      15-25
constraining bond 2 16 to    2.6866700 Å, actual value:    2.0856233 Å

          :  Hamiltonian                  GFN2-xTB          :
 * total energy  :   -42.8928947 Eh     change       -0.6650680E-10 Eh
 * total energy  :   -45.2052237 Eh     change       -0.2312329E+01 Eh
 * total energy  :   -48.8688320 Eh     change       -0.3663608E+01 Eh
 * total energy  :   -20.8982397 Eh     change        0.2797059E+02 Eh
 * total energy  :   -47.8420522 Eh     change       -0.2694381E+02 Eh
 * total energy  :   -47.8847645 Eh     change       -0.4271228E-01 Eh
 * total energy  :   -48.0771766 Eh     change       -0.1924121E+00 Eh
 * total energy  :   -48.2216746 Eh     change       -0.1444981E+00 Eh
 * total energy  :   -48.5810420 Eh     change       -0.3593673E+00 Eh
 * total energy  :   -49.1744041 Eh     change       -0.5933621E+00 Eh
 * total energy  :   -49.7342893 Eh     change       -0.4850230E-02 Eh
 * total energy  :   -49.7344532 Eh     change       -0.1639136E-03 Eh
 * total energy  :   -49.7345145 Eh     change       -0.6127743E-04 Eh
 * total energy  :   -49.7346389 Eh     change       -0.1243996E-03 Eh
 * total energy  :   -49.7347454 Eh     change       -0.1065184E-03 Eh
 * total energy  :   -49.7348405 Eh     change       -0.9510017E-04 Eh
 * total energy  :   -49.7349077 Eh     change       -0.6717708E-04 Eh
 * total energy  :   -49.7349416 Eh     change       -0.3394168E-04 Eh
 * total energy  :   -49.7349676 Eh     change       -0.2599524E-04 Eh
   *** GEOMETRY OPTIMIZATION CONVERGED AFTER 104 ITERATIONS ***

 final structure:
================
25
 xtb: 6.6.1 (8d0f1dd)
C            3.06921351310010        0.11703138050109        0.82824452627121
N            2.34192788662326        0.54241448447844       -0.40129416899899
C            2.74387603494320       -0.90443757466074       -0.18779819485401
N            1.56586542014469       -1.66035325268538       -0.02499971614866
C            0.48862948532076       -0.80425858067365       -0.04737462585882
C            0.90130999687929        0.48693525477003       -0.26504677526182
C           -0.00862505607629        1.59754357678195       -0.38598557792004
O            0.31011738829253        2.74104655635100       -0.60117369895346
N           -1.33168009922551        1.17632648153144       -0.22016057620819
C           -2.37257711995669        2.19273684351549       -0.31213658486994
C           -1.78310024993813       -0.10015080719315        0.02586532900359
O           -2.94150840566765       -0.36940950774675        0.16586902601115
N           -0.79888414281129       -1.12473337299137        0.10642720596601
C           -1.23273446250225       -2.48617716678160        0.34924301527519
H            4.08689784271347        0.47559294805273        0.89959260537312
H            2.54316716238131        0.86205449095049       -0.72443410735189
H            2.50268831740109        0.15836622615209        1.74861222483632
H            3.52450056915682       -1.32591413880254       -0.81172951523958
H           -1.88687529379474        3.16111793578264       -0.40360716682288
H           -2.99927557579720        2.00384225283562       -1.18300524173757
H           -2.99703791948797        2.15926117933680        0.57918748986044
H           -0.70847758263557       -2.90080658673084        1.20929346386265
H           -1.06150620047383       -3.10863241031250       -0.52988011525189
H           -2.30221333350491       -2.45508517368908        0.55412371888601
H            1.50673333901518       -2.61607249717302       -0.33666092196743

          :  Hamiltonian                  GFN2-xTB          :
         :: total energy             -49.734967622904 Eh    ::
         :: gradient norm              0.003421566164 Eh/a0 ::
         :: HOMO-LUMO gap              3.840910815466 eV    ::
         :: SCC energy               -42.732686096438 Eh    ::
         :: -> dispersion             -0.022661740339 Eh    ::
         :: repulsion energy           1.557958204530 Eh    ::

    * Orbital Energies and Occupations

         #    Occupation            Energy/Eh            Energy/eV
      -------------------------------------------------------------
         1        2.0000           -0.9364861             -25.4831
       ...           ...                  ...                  ...
        25        2.0000           -0.6740290             -18.3413
        26        2.0000           -0.6736689             -18.3315
        27        2.0000           -0.6576050             -17.8943
        28        2.0000           -0.6480928             -17.6355
        29        2.0000           -0.6433863             -17.5074
        30        1.9998           -0.6207755             -16.8922
        31        1.9998           -0.6198321             -16.8665
        32        1.9989           -0.5909836             -16.0815
        33        1.9988           -0.5901299             -16.0583
        34        1.9963           -0.5717723             -15.5587
        35        1.9893           -0.5546970             -15.0941
        36        1.9884           -0.5534225             -15.0594
        37        1.9861           -0.5506405             -14.9837 (HOMO)
        38        0.0378           -0.4094897             -11.1428 (LUMO)
        39        0.0042           -0.3746217             -10.1940
        40        0.0006           -0.3426317              -9.3235
        41        0.0000           -0.2888442              -7.8599
        42        0.0000           -0.2441142              -6.6427
        43        0.0000           -0.2082003              -5.6654
        44                         -0.1742984              -4.7429
        45                         -0.1548896              -4.2148
        46                         -0.1106799              -3.0118
        47                         -0.0962399              -2.6188
        48                         -0.0642064              -1.7471
       ...                                ...                  ...
        67                          3.7454604             101.9192
      -------------------------------------------------------------
                  HL-Gap            0.1411509 Eh            3.8409 eV

     #   Z          covCN         q      C6AA      α(0)
     1   6 C        3.746    -0.048    21.509     6.616
     2   7 N        3.600     0.036    20.604     6.742
     3   6 C        3.845     0.091    19.041     6.207
     4   7 N        2.726    -0.148    24.193     7.305
     5   6 C        2.938     0.128    25.189     8.231
     6   6 C        2.998    -0.077    29.920     8.973
     7   6 C        2.764     0.269    22.450     7.760
     8   8 O        0.858    -0.382    21.330     6.192
     9   7 N        2.747    -0.090    22.996     7.122
    10   6 C        3.709    -0.061    21.811     6.675
    11   6 C        2.725     0.316    21.621     7.612
    12   8 O        0.859    -0.359    20.872     6.125
    13   7 N        2.741    -0.057    22.341     7.020
    14   6 C        3.697    -0.073    22.077     6.721
    15   1 H        0.925     0.132     1.521     1.929
    16   1 H        0.874     0.250     0.881     1.469
    17   1 H        0.925     0.133     1.512     1.923
    18   1 H        0.925     0.120     1.617     1.988
    19   1 H        0.925     0.112     1.680     2.027
    20   1 H        0.925     0.094     1.841     2.122
    21   1 H        0.925     0.097     1.812     2.105
    22   1 H        0.925     0.085     1.929     2.172
    23   1 H        0.924     0.082     1.963     2.191
    24   1 H        0.925     0.128     1.547     1.945
    25   1 H        0.860     0.221     1.006     1.572

Wiberg/Mayer (AO) data.
largest (>0.10) Wiberg bond orders for each atom

     #   Z sym  total        # sym  WBO       # sym  WBO       # sym  WBO
 ---------------------------------------------------------------------------
     1   6 C    3.869 --     3 C    0.968    17 H    0.963    15 H    0.962
                             2 N    0.868
     2   7 N    3.671 --     6 C    0.958    16 H    0.919     1 C    0.868
                             3 C    0.844
     3   6 C    3.893 --     4 N    1.077     1 C    0.968    18 H    0.952
                             2 N    0.844
     4   7 N    3.380 --     5 C    1.140     3 C    1.077    25 H    0.919
     5   6 C    3.939 --     6 C    1.405    13 N    1.248     4 N    1.140
     6   6 C    3.819 --     5 C    1.405     7 C    1.100     2 N    0.958
     7   6 C    3.957 --     8 O    1.685     6 C    1.100     9 N    1.080
     8   8 O    2.034 --     7 C    1.685     9 N    0.142
     9   7 N    3.554 --    11 C    1.143     7 C    1.080    10 C    0.967
                            12 O    0.146     8 O    0.142
    10   6 C    3.916 --    19 H    0.969    21 H    0.967     9 N    0.967
                            20 H    0.966
    11   6 C    3.957 --    12 O    1.714     9 N    1.143    13 N    1.010
    12   8 O    2.075 --    11 C    1.714     9 N    0.146    13 N    0.117
    13   7 N    3.567 --     5 C    1.248    11 C    1.010    14 C    0.975
                            12 O    0.117
    14   6 C    3.925 --    13 N    0.975    22 H    0.972    23 H    0.969
                            24 H    0.963
    15   1 H    0.982 --     1 C    0.962
    16   1 H    0.937 --     2 N    0.919
    17   1 H    0.982 --     1 C    0.963
    18   1 H    0.985 --     3 C    0.952
    19   1 H    0.986 --    10 C    0.969
    20   1 H    0.987 --    10 C    0.966
    21   1 H    0.987 --    10 C    0.967
    22   1 H    0.990 --    14 C    0.972
    23   1 H    0.990 --    14 C    0.969
    24   1 H    0.983 --    14 C    0.963
    25   1 H    0.950 --     4 N    0.919
 ---------------------------------------------------------------------------

molecular dipole:
                 x           y           z       tot (Debye)
 q only:        3.316      -1.840       0.108
   full:        3.711      -2.025      -0.190      10.755

           -------------------------------------------------
          | TOTAL ENERGY              -49.734967622904 Eh   |
          | GRADIENT NORM               0.003421566164 Eh/α |
          | HOMO-LUMO GAP               3.840910815466 eV   |
           -------------------------------------------------

 * finished run on 2024/06/05 at 19:58:06.820
