   * xtb version 6.6.1 (8d0f1dd) compiled by 'conda@1efc2f54142f' on 2023-08-01
          program call               : xtb struc.xyz --opt loose --input .xc1 --gfn2

   ID    Z sym.   atoms
    1    6 C      1, 3, 5-7, 10, 11, 14
    2    7 N      2, 4, 9, 13
    3    8 O      8, 12
    4    1 H      15-25
constraining bond 6 23 to    4.7133300 Å, actual value:    4.0939623 Å

          :  Hamiltonian                  GFN2-xTB          :
 * total energy  :   -42.9328178 Eh     change       -0.6650680E-10 Eh
 * total energy  :   -45.3425011 Eh     change       -0.2409683E+01 Eh
 * total energy  :   -49.2203023 Eh     change       -0.3877801E+01 Eh
 * total energy  :   -54.7037705 Eh     change       -0.5483468E+01 Eh
 * total energy  :   -62.0622370 Eh     change       -0.7358467E+01 Eh
 * total energy  :   -70.8003794 Eh     change       -0.8738142E+01 Eh
 * total energy  :   -58.3193353 Eh     change        0.1248104E+02 Eh
 * total energy  :   -68.0940463 Eh     change       -0.9774711E+01 Eh
 * total energy  :   -68.6908576 Eh     change       -0.5968113E+00 Eh
 * total energy  :   -70.9917737 Eh     change       -0.2300916E+01 Eh
 * total energy  :   -73.3394165 Eh     change       -0.4491656E-04 Eh
 * total energy  :   -73.3394415 Eh     change       -0.2491162E-04 Eh
 * total energy  :   -73.3394650 Eh     change       -0.2355015E-04 Eh
 * total energy  :   -73.3394867 Eh     change       -0.2171506E-04 Eh
 * total energy  :   -73.3394981 Eh     change       -0.1138741E-04 Eh
 * total energy  :   -73.3395120 Eh     change       -0.1391853E-04 Eh
 * total energy  :   -73.3392893 Eh     change        0.2227152E-03 Eh
 * total energy  :   -73.3395239 Eh     change       -0.2346060E-03 Eh
 * total energy  :   -73.3395290 Eh     change       -0.5096840E-05 Eh
   *** GEOMETRY OPTIMIZATION CONVERGED AFTER 96 ITERATIONS ***

 final structure:
================
25
 xtb: 6.6.1 (8d0f1dd)
C            4.32645960734853        0.29096062857633       -0.29269640277252
N            2.99288659219719       -0.10615418713044       -0.10190691562048
C            2.57542410258517       -1.21492980514644        0.32103606915356
N            1.24379148738287       -1.50960425916089        0.44998856014539
C            0.20394884324090       -0.64320961468195        0.18300560181649
C            0.48580014792916        0.68886333227804       -0.11342547658179
C           -0.71335964876410        1.55020836078509       -0.34705499599921
O           -0.59686958805938        2.70657309591890       -0.66913415085450
N           -1.98160759477734        0.99466717835266       -0.13614066381531
C           -3.14492521767578        1.86334993554997       -0.26240600908961
C           -2.24305251865061       -0.29750024772715        0.15628736157234
O           -3.33147035209470       -0.75785738544746        0.33690478672604
N           -1.07572553074136       -1.18471597472940        0.22294651925852
C           -1.36467391170620       -2.47607331422221        0.29998327978905
H            5.05791081820708       -0.48558388293400       -0.03743354534283
H            4.45317157104634        0.58111671547216       -1.33822721581530
H            4.51158853486573        1.17888401853124        0.31585935671146
H            3.22896227545396       -2.04561313834525        0.61044446567110
H           -2.79168154823404        2.88139863821041       -0.41078958964176
H           -3.75136424431193        1.55146919154261       -1.11310253050183
H           -3.75209287313117        1.79509131488925        0.63962355975221
H           -0.61950422064806       -3.24634649612311        0.25963876641620
H            0.83130504612512        0.85325759894175       -0.13912118460696
H           -2.40991737810606       -2.73723045015789        0.35001413558967
H            1.02542711462152       -2.41278271163688        0.84687783593700

          :  Hamiltonian                  GFN2-xTB          :
         :: total energy             -73.339529015042 Eh    ::
         :: gradient norm              0.001683734736 Eh/a0 ::
         :: HOMO-LUMO gap              1.123800668332 eV    ::
         :: SCC energy               -42.689585568912 Eh    ::
         :: -> dispersion             -0.021309842443 Eh    ::
         :: repulsion energy           2.824452328909 Eh    ::

    * Orbital Energies and Occupations

         #    Occupation            Energy/Eh            Energy/eV
      -------------------------------------------------------------
         1        2.0000           -0.8995610             -24.4783
       ...           ...                  ...                  ...
        25        1.9998           -0.6656134             -18.1123
        26        1.9998           -0.6608666             -17.9831
        27        1.9996           -0.6519079             -17.7393
        28        1.9995           -0.6471449             -17.6097
        29        1.9991           -0.6393176             -17.3967
        30        1.9986           -0.6312086             -17.1761
        31        1.9940           -0.6086206             -16.5614
        32        1.9916           -0.6032512             -16.4153
        33        1.9888           -0.5985487             -16.2873
        34        1.9525           -0.5754619             -15.6591
        35        1.9276           -0.5685726             -15.4716
        36        1.8763           -0.5596664             -15.2293
        37        1.6911           -0.5435246             -14.7901 (HOMO)
        38        0.5747           -0.5022257             -13.6663 (LUMO)
        39        0.0061           -0.4249082             -11.5623
        40        0.0009           -0.3941909             -10.7265
        41        0.0002           -0.3733950             -10.1606
        42        0.0000           -0.3065176              -8.3408
        43                         -0.2154776              -5.8634
        44                         -0.1775582              -4.8316
        45                         -0.1621207              -4.4115
        46                         -0.0731956              -1.9918
        47                         -0.0630612              -1.7160
        48                         -0.0412969              -1.1237
       ...                                ...                  ...
        67                         14.3683549             390.9828
      -------------------------------------------------------------
                  HL-Gap            0.0412989 Eh            1.1238 eV

     #   Z          covCN         q      C6AA      α(0)
     1   6 C        3.700    -0.053    21.684     6.659
     2   7 N        1.829    -0.128    24.560     7.344
     3   6 C        2.772     0.117    25.409     8.256
     4   7 N        2.701    -0.102    23.247     7.161
     5   6 C        2.880     0.115    25.462     8.272
     6   6 C        2.900    -0.159    32.105     9.290
     7   6 C        2.786     0.268    22.474     7.765
     8   8 O        0.859    -0.306    19.892     5.980
     9   7 N        2.735    -0.063    22.456     7.038
    10   6 C        3.711    -0.067    21.918     6.690
    11   6 C        2.738     0.317    21.620     7.613
    12   8 O        0.859    -0.330    20.336     6.046
    13   7 N        2.737     0.012    21.040     6.813
    14   6 C        2.806    -0.027    28.658     8.770
    15   1 H        0.924     0.083     1.944     2.181
    16   1 H        0.924     0.114     1.662     2.016
    17   1 H        0.924     0.115     1.658     2.014
    18   1 H        0.924     0.078     2.003     2.214
    19   1 H        0.925     0.123     1.588     1.970
    20   1 H        0.924     0.106     1.735     2.060
    21   1 H        0.925     0.107     1.720     2.051
    22   1 H        0.926     0.110     1.696     2.037
    23   1 H        0.990     0.204     1.074     1.619
    24   1 H        0.926     0.152     1.376     1.834
    25   1 H        0.860     0.213     1.042     1.599

Wiberg/Mayer (AO) data.
largest (>0.10) Wiberg bond orders for each atom

     #   Z sym  total        # sym  WBO       # sym  WBO       # sym  WBO
 ---------------------------------------------------------------------------
     1   6 C    3.906 --     2 N    1.067    15 H    0.933    16 H    0.932
                            17 H    0.932
     2   7 N    2.986 --     3 C    1.745     1 C    1.067
     3   6 C    3.931 --     2 N    1.745     4 N    1.166    18 H    0.913
     4   7 N    3.468 --     3 C    1.166     5 C    1.147    25 H    0.915
     5   6 C    3.903 --     6 C    1.504     4 N    1.147    13 N    1.093
     6   6 C    3.754 --     5 C    1.504     7 C    1.047    23 H    0.926
     7   6 C    3.919 --     8 O    1.725     9 N    1.061     6 C    1.047
     8   8 O    1.993 --     7 C    1.725     9 N    0.108
     9   7 N    3.549 --    11 C    1.202     7 C    1.061    10 C    0.962
                            12 O    0.155     8 O    0.108
    10   6 C    3.888 --    19 H    0.962     9 N    0.962    21 H    0.959
                            20 H    0.956
    11   6 C    3.934 --    12 O    1.731     9 N    1.202    13 N    0.913
    12   8 O    2.064 --    11 C    1.731     9 N    0.155
    13   7 N    3.614 --    14 C    1.418     5 C    1.093    11 C    0.913
    14   6 C    3.446 --    13 N    1.418    22 H    0.958    24 H    0.948
    15   1 H    0.939 --     1 C    0.933
    16   1 H    0.967 --     1 C    0.932
    17   1 H    0.967 --     1 C    0.932
    18   1 H    0.950 --     3 C    0.913
    19   1 H    0.981 --    10 C    0.962
    20   1 H    0.976 --    10 C    0.956
    21   1 H    0.977 --    10 C    0.959
    22   1 H    0.987 --    14 C    0.958
    23   1 H    0.957 --     6 C    0.926
    24   1 H    0.976 --    14 C    0.948
    25   1 H    0.953 --     4 N    0.915
 ---------------------------------------------------------------------------

molecular dipole:
                 x           y           z       tot (Debye)
 q only:        1.426      -1.822       0.363
   full:        1.666      -2.467       0.545       7.692

           -------------------------------------------------
          | TOTAL ENERGY              -73.339529015042 Eh   |
          | GRADIENT NORM               0.001683734736 Eh/α |
          | HOMO-LUMO GAP               1.123800668332 eV   |
           -------------------------------------------------

 * finished run on 2024/06/05 at 19:58:12.838
