   * xtb version 6.6.1 (8d0f1dd) compiled by 'conda@1efc2f54142f' on 2023-08-01
          program call               : xtb xtbopt.xyz --opt crude --input .xc2 --gfn2

   ID    Z sym.   atoms
    1    6 C      1, 3, 5-7, 10, 11, 14
    2    7 N      2, 4, 9, 13
    3    8 O      8, 12
    4    1 H      15-25
########################################################################
[WARNING] Please study the warnings concerning your input carefully
-1- readin_getIntValue: could not parse ''
########################################################################

          :  Hamiltonian                  GFN2-xTB          :
 * total energy  :   -39.8651363 Eh     change       -0.6821210E-12 Eh
 * total energy  :   -42.1075168 Eh     change       -0.2242381E+01 Eh
 * total energy  :   -42.1357898 Eh     change       -0.2827299E-01 Eh
 * total energy  :   -42.1411139 Eh     change       -0.5324105E-02 Eh
 * total energy  :   -42.1424752 Eh     change       -0.1361352E-02 Eh
 * total energy  :   -42.1431083 Eh     change       -0.6330358E-03 Eh
 * total energy  :   -42.1436719 Eh     change       -0.5636135E-03 Eh
 * total energy  :   -42.1441480 Eh     change       -0.4760712E-03 Eh
 * total energy  :   -42.1445628 Eh     change       -0.4148678E-03 Eh
 * total energy  :   -42.1447525 Eh     change       -0.1897141E-03 Eh
   *** GEOMETRY OPTIMIZATION CONVERGED AFTER 10 ITERATIONS ***

 final structure:
================
25
 xtb: 6.6.1 (8d0f1dd)
C            4.40535812230900        0.21721295595759       -0.27756641182669
N            3.04320010429471       -0.10184302278177       -0.11707666105927
C            2.57435207453564       -1.19120870909498        0.30556246003097
N            1.23995693168343       -1.46342472874207        0.42374402196165
C            0.18222762902833       -0.61829661597547        0.16444859301470
C            0.33096891265324        0.69923566523484       -0.12776304476405
C           -0.79030570672197        1.58446940791516       -0.34370677418672
O           -0.69620771249417        2.74962411429208       -0.64419254548293
N           -2.04628668305308        0.99392599139749       -0.14184743242379
C           -3.23318329083045        1.83175837780164       -0.25415995147636
C           -2.27606377056392       -0.30539652111970        0.15263103141231
O           -3.35395852057451       -0.78785103518399        0.33879983604761
N           -1.09130886624694       -1.17757894562454        0.21792259302391
C           -1.36103169646635       -2.47028979867181        0.30575369890506
H            5.08203813619274       -0.60072046697567        0.00130731653906
H            4.57734160870610        0.48918401241602       -1.32132390406388
H            4.63065533904779        1.09608424996619        0.33074824435136
H            3.20292395633795       -2.03713151862201        0.60835013036160
H           -2.90778384502291        2.85769176377551       -0.41137710683770
H           -3.84313596514928        1.49960927499682       -1.09434078460094
H           -3.82526026256421        1.75189991497945        0.65689676467929
H           -0.61023272429551       -3.23516141488741        0.26761910761503
H            1.30676894563105        1.14673090965575       -0.19558762501516
H           -2.40260039579121       -2.74397095827292        0.36537506812508
H            1.02199919345741       -2.36631436083101        0.82095499356679

          :  Hamiltonian                  GFN2-xTB          :
         :: total energy             -42.144752533787 Eh    ::
         :: gradient norm              0.007588759564 Eh/a0 ::
         :: HOMO-LUMO gap              1.203383001492 eV    ::
         :: SCC energy               -42.686412439179 Eh    ::
         :: -> dispersion             -0.021120762188 Eh    ::
         :: repulsion energy           0.541667209437 Eh    ::

    * Orbital Energies and Occupations

         #    Occupation            Energy/Eh            Energy/eV
      -------------------------------------------------------------
         1        2.0000           -0.8980262             -24.4365
       ...           ...                  ...                  ...
        25        1.9998           -0.6652111             -18.1013
        26        1.9998           -0.6588944             -17.9294
        27        1.9996           -0.6512491             -17.7214
        28        1.9994           -0.6442801             -17.5318
        29        1.9991           -0.6379450             -17.3594
        30        1.9984           -0.6285311             -17.1032
        31        1.9940           -0.6074353             -16.5292
        32        1.9918           -0.6026553             -16.3991
        33        1.9893           -0.5982761             -16.2799
        34        1.9504           -0.5737475             -15.6125
        35        1.9296           -0.5680258             -15.4568
        36        1.8700           -0.5578104             -15.1788
        37        1.7221           -0.5444773             -14.8160 (HOMO)
        38        0.5503           -0.5002538             -13.6126 (LUMO)
        39        0.0056           -0.4226885             -11.5019
        40        0.0007           -0.3891831             -10.5902
        41        0.0002           -0.3716437             -10.1129
        42        0.0000           -0.2926814              -7.9643
        43                         -0.2197761              -5.9804
        44                         -0.1752650              -4.7692
        45                         -0.1454538              -3.9580
        46                         -0.0924581              -2.5159
        47                         -0.0702590              -1.9118
        48                         -0.0379368              -1.0323
       ...                                ...                  ...
        67                          0.5584815              15.1971
      -------------------------------------------------------------
                  HL-Gap            0.0442235 Eh            1.2034 eV

     #   Z          covCN         q      C6AA      α(0)
     1   6 C        3.702    -0.050    21.632     6.651
     2   7 N        1.827    -0.143    24.866     7.389
     3   6 C        2.772     0.119    25.375     8.250
     4   7 N        2.697    -0.102    23.247     7.161
     5   6 C        2.833     0.126    25.236     8.232
     6   6 C        2.907    -0.094    30.371     9.036
     7   6 C        2.766     0.279    22.283     7.731
     8   8 O        0.859    -0.310    19.958     5.990
     9   7 N        2.739    -0.060    22.408     7.031
    10   6 C        3.711    -0.067    21.916     6.690
    11   6 C        2.736     0.316    21.625     7.614
    12   8 O        0.859    -0.332    20.365     6.050
    13   7 N        2.742     0.017    20.958     6.799
    14   6 C        2.805    -0.027    28.656     8.770
    15   1 H        0.924     0.079     1.985     2.203
    16   1 H        0.924     0.111     1.688     2.032
    17   1 H        0.924     0.110     1.694     2.035
    18   1 H        0.924     0.075     2.031     2.229
    19   1 H        0.925     0.123     1.588     1.971
    20   1 H        0.925     0.105     1.739     2.062
    21   1 H        0.925     0.106     1.728     2.056
    22   1 H        0.926     0.110     1.700     2.039
    23   1 H        0.926     0.142     1.449     1.883
    24   1 H        0.926     0.152     1.379     1.836
    25   1 H        0.860     0.215     1.034     1.593

Wiberg/Mayer (AO) data.
largest (>0.10) Wiberg bond orders for each atom

     #   Z sym  total        # sym  WBO       # sym  WBO       # sym  WBO
 ---------------------------------------------------------------------------
     1   6 C    3.909 --     2 N    1.061    15 H    0.937    17 H    0.935
                            16 H    0.935
     2   7 N    2.990 --     3 C    1.741     1 C    1.061
     3   6 C    3.931 --     2 N    1.741     4 N    1.170    18 H    0.914
     4   7 N    3.465 --     3 C    1.170     5 C    1.140    25 H    0.914
     5   6 C    3.912 --     6 C    1.531     4 N    1.140    13 N    1.085
     6   6 C    3.804 --     5 C    1.531     7 C    1.090    23 H    0.930
     7   6 C    3.925 --     8 O    1.710     6 C    1.090     9 N    1.051
     8   8 O    1.980 --     7 C    1.710     9 N    0.109
     9   7 N    3.549 --    11 C    1.206     7 C    1.051    10 C    0.965
                            12 O    0.155     8 O    0.109
    10   6 C    3.890 --     9 N    0.965    19 H    0.963    21 H    0.958
                            20 H    0.956
    11   6 C    3.932 --    12 O    1.730     9 N    1.206    13 N    0.909
    12   8 O    2.061 --    11 C    1.730     9 N    0.155
    13   7 N    3.614 --    14 C    1.430     5 C    1.085    11 C    0.909
    14   6 C    3.461 --    13 N    1.430    22 H    0.957    24 H    0.948
    15   1 H    0.944 --     1 C    0.937
    16   1 H    0.968 --     1 C    0.935
    17   1 H    0.969 --     1 C    0.935
    18   1 H    0.953 --     3 C    0.914
    19   1 H    0.981 --    10 C    0.963
    20   1 H    0.975 --    10 C    0.956
    21   1 H    0.977 --    10 C    0.958
    22   1 H    0.987 --    14 C    0.957
    23   1 H    0.977 --     6 C    0.930
    24   1 H    0.976 --    14 C    0.948
    25   1 H    0.953 --     4 N    0.914
 ---------------------------------------------------------------------------

molecular dipole:
                 x           y           z       tot (Debye)
 q only:        1.375      -1.812       0.359
   full:        1.683      -2.442       0.542       7.662

           -------------------------------------------------
          | TOTAL ENERGY              -42.144752533787 Eh   |
          | GRADIENT NORM               0.007588759564 Eh/α |
          | HOMO-LUMO GAP               1.203383001492 eV   |
           -------------------------------------------------

 * finished run on 2024/06/05 at 19:58:13.239
