   * xtb version 6.6.1 (8d0f1dd) compiled by 'conda@1efc2f54142f' on 2023-08-01
          program call               : xtb struc.xyz --opt loose --input .xc1 --gfn2

   ID    Z sym.   atoms
    1    6 C      1, 3, 5-7, 10, 11, 14
    2    7 N      2, 4, 9, 13
    3    8 O      8, 12
    4    1 H      15-25
constraining bond 7 21 to    5.1400000 Å, actual value:    3.1541658 Å

          :  Hamiltonian                  GFN2-xTB          :
 * total energy  :   -35.2187377 Eh     change       -0.2401990E-09 Eh
 * total energy  :   -38.4457154 Eh     change       -0.3226978E+01 Eh
 * total energy  :   -40.6502079 Eh     change       -0.2204493E+01 Eh
 * total energy  :   -41.6918894 Eh     change       -0.1041681E+01 Eh
 * total energy  :   -41.9757200 Eh     change       -0.2838306E+00 Eh
 * total energy  :   -42.0043617 Eh     change       -0.2864169E-01 Eh
 * total energy  :   -42.0160137 Eh     change       -0.1165203E-01 Eh
 * total energy  :   -42.0366965 Eh     change       -0.2068276E-01 Eh
 * total energy  :   -42.0465597 Eh     change       -0.9863225E-02 Eh
 * total energy  :   -42.0552947 Eh     change       -0.8735015E-02 Eh
 * total energy  :   -42.1372458 Eh     change       -0.4724586E-03 Eh
 * total energy  :   -42.1375139 Eh     change       -0.2680553E-03 Eh
 * total energy  :   -42.1376205 Eh     change       -0.1066320E-03 Eh
 * total energy  :   -42.1377405 Eh     change       -0.1199398E-03 Eh
 * total energy  :   -42.1378123 Eh     change       -0.7179411E-04 Eh
 * total energy  :   -42.1378886 Eh     change       -0.7629336E-04 Eh
 * total energy  :   -42.1379260 Eh     change       -0.3748768E-04 Eh
 * total energy  :   -42.1379719 Eh     change       -0.4583825E-04 Eh
 * total energy  :   -42.1380044 Eh     change       -0.3250260E-04 Eh
   *** GEOMETRY OPTIMIZATION CONVERGED AFTER 42 ITERATIONS ***

 final structure:
================
25
 xtb: 6.6.1 (8d0f1dd)
C            3.36808070974163        1.05040788880391       -0.02552312143139
N            2.37844433153405        0.00810448753893       -0.03412569918243
C            2.60474087328989       -1.31029734486264       -0.01164242248908
N            1.42177148794137       -1.97813047158255       -0.00010303778075
C            0.41728618224761       -1.05595369523755       -0.01352483400929
C            1.01281517435050        0.20205133340287       -0.03544806457080
C            0.25326955500994        1.40942106282173       -0.06525685378479
O            0.66728867224045        2.55020584561092       -0.11959007366620
N           -1.16559311656073        1.14304790447683       -0.01397878631328
C           -1.98610634424635        2.20572324557850        0.00984122086291
C           -1.77052029027751       -0.14070573365705        0.01066505126829
O           -2.96761969940695       -0.26563545973932        0.04313041344043
N           -0.92033684877528       -1.24529296434413       -0.00664389542879
C           -1.49813319787605       -2.57527091825665       -0.01011381161788
H            3.89634098215442        1.06571162415378        0.92979644234393
H            4.09352481663066        0.89194471623452       -0.82363002412506
H            2.86870594874749        2.00796383467873       -0.16943828885455
H            3.57003230118142       -1.77358826893910       -0.00307297200661
H           -1.53624196684290        3.18157585366112       -0.01051768304034
H           -3.06573511239876        2.05846589473937        0.07210843040609
H           -4.82715953235167        2.08033684789673        0.32907442674950
H           -1.19137184956656       -3.12775692328992        0.87851861459734
H           -1.19993344321035       -3.11524286683935       -0.90944171546133
H           -2.58199036338477       -2.46686424631678       -0.00356345071861
H            1.31887224392813       -2.98198310493250        0.01365175271278

          :  Hamiltonian                  GFN2-xTB          :
         :: total energy             -42.138004388038 Eh    ::
         :: gradient norm              0.002259461785 Eh/a0 ::
         :: HOMO-LUMO gap              0.127970441165 eV    ::
         :: SCC energy               -42.650811371279 Eh    ::
         :: -> dispersion             -0.022862630452 Eh    ::
         :: repulsion energy           0.512726309154 Eh    ::

    * Orbital Energies and Occupations

         #    Occupation            Energy/Eh            Energy/eV
      -------------------------------------------------------------
         1        2.0000           -0.9054477             -24.6385
       ...           ...                  ...                  ...
        25        1.9995           -0.6726609             -18.3040
        26        1.9993           -0.6681997             -18.1826
        27        1.9992           -0.6632967             -18.0492
        28        1.9969           -0.6316042             -17.1868
        29        1.9966           -0.6293174             -17.1246
        30        1.9964           -0.6281606             -17.0931
        31        1.9944           -0.6173408             -16.7987
        32        1.9939           -0.6154909             -16.7484
        33        1.9930           -0.6121342             -16.6570
        34        1.9796           -0.5865015             -15.9595
        35        1.9562           -0.5680362             -15.4571
        36        1.9321           -0.5573442             -15.1661
        37        0.9736           -0.4765732             -12.9682 (HOMO)
        38        0.8752           -0.4718703             -12.8402 (LUMO)
        39        0.2228           -0.4285119             -11.6604
        40        0.0693           -0.3987882             -10.8516
        41        0.0231           -0.3721275             -10.1261
        42        0.0007           -0.2876872              -7.8284
        43        0.0000           -0.2082400              -5.6665
        44        0.0000           -0.1951031              -5.3090
        45        0.0000           -0.1506236              -4.0987
        46        0.0000           -0.1445086              -3.9323
        47                         -0.0762255              -2.0742
        48                         -0.0517945              -1.4094
       ...                                ...                  ...
        67                          0.5384291              14.6514
      -------------------------------------------------------------
                  HL-Gap            0.0047028 Eh            0.1280 eV

     #   Z          covCN         q      C6AA      α(0)
     1   6 C        3.690    -0.091    22.443     6.780
     2   7 N        2.823     0.069    20.035     6.648
     3   6 C        3.037     0.041    27.049     8.531
     4   7 N        2.784    -0.062    22.441     7.036
     5   6 C        3.033     0.102    25.703     8.316
     6   6 C        3.098    -0.019    28.361     8.728
     7   6 C        2.773     0.250    22.807     7.822
     8   8 O        0.857    -0.357    20.834     6.120
     9   7 N        2.740    -0.030    21.818     6.937
    10   6 C        2.811    -0.022    28.541     8.753
    11   6 C        2.736     0.305    21.814     7.647
    12   8 O        0.859    -0.351    20.729     6.104
    13   7 N        2.736    -0.046    22.136     6.988
    14   6 C        3.698    -0.073    22.066     6.718
    15   1 H        0.924     0.106     1.729     2.056
    16   1 H        0.925     0.105     1.742     2.064
    17   1 H        0.925     0.133     1.510     1.921
    18   1 H        0.926     0.120     1.610     1.984
    19   1 H        0.926     0.134     1.504     1.918
    20   1 H        0.924     0.134     1.503     1.917
    21   1 H        0.000     0.022     6.728     4.743
    22   1 H        0.924     0.087     1.912     2.162
    23   1 H        0.924     0.087     1.909     2.161
    24   1 H        0.925     0.128     1.548     1.945
    25   1 H        0.860     0.226     0.982     1.552

Wiberg/Mayer (AO) data.
largest (>0.10) Wiberg bond orders for each atom

     #   Z sym  total        # sym  WBO       # sym  WBO       # sym  WBO
 ---------------------------------------------------------------------------
     1   6 C    3.911 --     2 N    0.990    16 H    0.961    17 H    0.959
                            15 H    0.955
     2   7 N    3.599 --     3 C    1.341     6 C    1.142     1 C    0.990
     3   6 C    3.734 --     2 N    1.341     4 N    1.247    18 H    0.955
     4   7 N    3.542 --     3 C    1.247     5 C    1.189    25 H    0.921
     5   6 C    3.857 --     6 C    1.310     4 N    1.189    13 N    1.183
     6   6 C    3.868 --     5 C    1.310     2 N    1.142     7 C    1.128
     7   6 C    3.834 --     8 O    1.649     6 C    1.128     9 N    0.973
     8   8 O    1.906 --     7 C    1.649
     9   7 N    3.582 --    10 C    1.332    11 C    1.025     7 C    0.973
    10   6 C    3.263 --     9 N    1.332    19 H    0.953    20 H    0.903
    11   6 C    3.878 --    12 O    1.681    13 N    1.083     9 N    1.025
    12   8 O    1.971 --    11 C    1.681    13 N    0.124
    13   7 N    3.526 --     5 C    1.183    11 C    1.083    14 C    0.974
                            12 O    0.124
    14   6 C    3.916 --    13 N    0.974    23 H    0.968    22 H    0.968
                            24 H    0.962
    15   1 H    0.979 --     1 C    0.955
    16   1 H    0.981 --     1 C    0.961
    17   1 H    0.980 --     1 C    0.959
    18   1 H    0.984 --     3 C    0.955
    19   1 H    0.976 --    10 C    0.953
    20   1 H    0.978 --    10 C    0.903
    21   1 H    0.062
    22   1 H    0.985 --    14 C    0.968
    23   1 H    0.985 --    14 C    0.968
    24   1 H    0.981 --    14 C    0.962
    25   1 H    0.948 --     4 N    0.921
 ---------------------------------------------------------------------------

molecular dipole:
                 x           y           z       tot (Debye)
 q only:        2.163      -1.899       0.037
   full:        2.367      -2.342       0.050       8.465

           -------------------------------------------------
          | TOTAL ENERGY              -42.138004388038 Eh   |
          | GRADIENT NORM               0.002259461785 Eh/α |
          | HOMO-LUMO GAP               0.127970441165 eV   |
           -------------------------------------------------

 * finished run on 2024/06/05 at 19:58:50.374
