   * xtb version 6.6.1 (8d0f1dd) compiled by 'conda@1efc2f54142f' on 2023-08-01
          program call               : xtb struc.xyz --opt loose --input .xc1 --gfn2

   ID    Z sym.   atoms
    1    7 N      1, 17
    2    6 C      2-6, 8, 9, 11-16, 18-23, 25, 26, 28-33
    3    8 O      7, 10, 24, 27
    4    1 H      34-72
constraining bond 15 43 to    4.1400000 Å, actual value:    2.1449558 Å

          :  Hamiltonian                  GFN2-xTB          :
 * total energy  :   -98.6934532 Eh     change       -0.4035485E-08 Eh
 * total energy  :   -98.9351744 Eh     change       -0.2417212E+00 Eh
 * total energy  :   -99.0774970 Eh     change       -0.1423226E+00 Eh
 * total energy  :   -99.1509255 Eh     change       -0.7342850E-01 Eh
 * total energy  :   -99.1831432 Eh     change       -0.3221778E-01 Eh
 * total energy  :   -99.1949654 Eh     change       -0.1182212E-01 Eh
 * total energy  :   -99.2000121 Eh     change       -0.5046793E-02 Eh
 * total energy  :   -99.2040809 Eh     change       -0.4068782E-02 Eh
 * total energy  :   -99.2067590 Eh     change       -0.2678088E-02 Eh
 * total energy  :   -99.2091511 Eh     change       -0.2392039E-02 Eh
 * total energy  :   -99.3303134 Eh     change       -0.8787367E-04 Eh
 * total energy  :   -99.3303753 Eh     change       -0.6193509E-04 Eh
 * total energy  :   -99.3304441 Eh     change       -0.6876758E-04 Eh
 * total energy  :   -99.3305094 Eh     change       -0.6530806E-04 Eh
 * total energy  :   -99.3306200 Eh     change       -0.1105801E-03 Eh
 * total energy  :   -99.3306841 Eh     change       -0.6407508E-04 Eh
 * total energy  :   -99.3307398 Eh     change       -0.5571670E-04 Eh
 * total energy  :   -99.3307910 Eh     change       -0.5121025E-04 Eh
 * total energy  :   -99.3308330 Eh     change       -0.4197624E-04 Eh
   *** GEOMETRY OPTIMIZATION CONVERGED AFTER 41 ITERATIONS ***

 final structure:
================
72
 xtb: 6.6.1 (8d0f1dd)
N           -1.83777133007276        3.18909815691928        1.92756755847706
C           -2.00976874041288        2.45340900422989        0.93374369937090
C           -3.35614484061686        2.24737605370932        0.27771912188470
C           -3.64911606829219        0.74121565493143        0.24255283960575
C           -4.54553255437832        0.23281702694659       -0.69420405150161
C           -4.88359930745733       -1.11207478942133       -0.70594999797288
O           -5.74646812247785       -1.69127104871431       -1.56124863505991
C           -6.43006943510619       -0.89556983715476       -2.50195417600097
C           -4.30153826112224       -1.98902440283453        0.25219301473434
O           -4.69528574847990       -3.27322533002648        0.17432069243080
C           -4.24561495244417       -4.19351834117960        1.14209505881189
C           -3.40327242772464       -1.46993426458671        1.17334285021455
C           -3.08103964575207       -0.11926194116224        1.16903882114520
C           -3.19979821079548        2.74421054602156       -1.10336869785657
C           -1.14949808405398        0.24461576005844       -2.34810993114267
C            0.01012518756008        0.52613345451536       -1.73997158722726
N            0.59479539082215       -0.18294690720344       -0.73361662781767
C            1.96662369495608        0.07818227827312       -0.39010299704712
C            2.96492027399742       -0.64873108260355       -1.32046465191504
C            4.37321654099338       -0.37291380341551       -0.88569565430945
C            4.96922178590451        0.85066302332039       -1.16447146664763
C            6.25100381210810        1.13547693225402       -0.72532055606108
C            6.97314666582569        0.19784088779758        0.00248621816262
O            8.21583773619722        0.36521657211458        0.48458159816817
C            8.88806272964945        1.58302996197945        0.25804242980800
C            6.37848768461276       -1.06664645255971        0.27990205330974
O            7.15295519646552       -1.92169737406570        0.97140866848836
C            6.67519152007823       -3.21551030537155        1.25619989688649
C            5.08811827258592       -1.32254925773715       -0.16157574670402
C            0.02650921957566       -1.44299218160978       -0.32737567207364
C           -4.54811043337965        2.95418280634804        0.98786241477659
C           -4.76186967375283        2.44515028608147        2.40806314276427
C           -4.36992687839206        4.46997866684408        0.99448743522345
H           -4.98938763881207        0.90015671830195       -1.41389837005857
H           -7.03684863191368       -0.12883238267841       -2.01104168918987
H           -7.08187337171614       -1.57950196184031       -3.04218797974718
H           -5.73854180784078       -0.42217380487528       -3.20544109117276
H           -4.51254712839275       -3.87358693615911        2.15365961989598
H           -4.75387126715942       -5.12858438458869        0.91317593651581
H           -3.16306473128828       -4.34484426713413        1.07937341009931
H           -2.95602210516731       -2.11036894506112        1.91663575844160
H           -2.40087114943624        0.25893615662450        1.91623589418714
H           -4.04010108880213        3.13015230065774       -1.64774672696024
H           -2.24798146364093        2.70226735780401       -1.59535197649226
H           -1.74397585455229       -0.62035934434321       -2.11823214213971
H           -1.51867614024371        0.88642044037294       -3.12465019339605
H           -1.20601194274933        1.91416836086146        0.41002357626874
H            0.56229066191366        1.41348667661259       -2.02383927364816
H            2.13985813669338       -0.24298398273289        0.64103999656063
H            2.15129056839158        1.15433025770154       -0.44555374698544
H            2.80796851540204       -0.29528375735610       -2.34193146807101
H            2.76490076559172       -1.72052743464610       -1.29176741084013
H            4.43357263667650        1.59109628914006       -1.73857402209984
H            6.68568290452447        2.09389172764103       -0.95762141576234
H            8.35594789315429        2.42373886007889        0.71345286235325
H            9.02494040851015        1.77210956891990       -0.81066791584650
H            9.86108444114420        1.47199576528964        0.73278251648224
H            7.48030561827835       -3.71229428406632        1.79406591545288
H            5.78322883843446       -3.18395478625472        1.88955821696627
H            6.45474101571129       -3.77083268335127        0.33952263857158
H            4.62845396036633       -2.27608054122578        0.04640450255233
H            0.07846900585997       -2.18790386135583       -1.12803405222088
H           -1.02116745354835       -1.30245504612730       -0.05632241029553
H            0.56447593987431       -1.81875096693622        0.54004008334765
H           -5.43845819390606        2.71038534170902        0.39582813240459
H           -3.89800200870031        2.68171532017129        3.02242599360781
H           -4.92595391106547        1.37064791844032        2.42346154584333
H           -5.63313177398827        2.92987931875708        2.84007070858236
H           -3.53584981553696        4.74408704488016        1.63301793909299
H           -4.17844373249959        4.84745150770194       -0.00757986985049
H           -5.27067339492558        4.94351144868944        1.37678859092443
H           -0.89303210425793        3.30230076017869        2.28196569430178

          :  Hamiltonian                  GFN2-xTB          :
         :: total energy             -99.330832975396 Eh    ::
         :: gradient norm              0.002194262044 Eh/a0 ::
         :: HOMO-LUMO gap              0.840627505012 eV    ::
         :: SCC energy              -100.734291652756 Eh    ::
         :: -> dispersion             -0.073128717881 Eh    ::
         :: repulsion energy           1.402141217208 Eh    ::

    * Orbital Energies and Occupations

         #    Occupation            Energy/Eh            Energy/eV
      -------------------------------------------------------------
         1        2.0000           -0.8157433             -22.1975
       ...           ...                  ...                  ...
        78        1.9970           -0.5313705             -14.4593
        79        1.9970           -0.5311687             -14.4538
        80        1.9960           -0.5267196             -14.3328
        81        1.9950           -0.5230465             -14.2328
        82        1.9935           -0.5188611             -14.1189
        83        1.9921           -0.5158106             -14.0359
        84        1.9917           -0.5150513             -14.0153
        85        1.9722           -0.4957048             -13.4888
        86        1.9670           -0.4929363             -13.4135
        87        1.8918           -0.4735228             -12.8852
        88        1.8226           -0.4651046             -12.6561
        89        1.8019           -0.4631744             -12.6036
        90        1.6976           -0.4555276             -12.3955 (HOMO)
        91        0.8875           -0.4246351             -11.5549 (LUMO)
        92        0.0070           -0.3386905              -9.2162
        93        0.0024           -0.3215439              -8.7497
        94        0.0020           -0.3187053              -8.6724
        95        0.0017           -0.3163835              -8.6092
        96        0.0016           -0.3148338              -8.5671
        97        0.0004           -0.2913183              -7.9272
        98        0.0000           -0.1959979              -5.3334
        99        0.0000           -0.1912933              -5.2054
       100                         -0.0991258              -2.6974
       101                         -0.0690029              -1.8777
       ...                                ...                  ...
       171                          0.5693962              15.4941
      -------------------------------------------------------------
                  HL-Gap            0.0308925 Eh            0.8406 eV

     #   Z          covCN         q      C6AA      α(0)
     1   7 N        1.774    -0.263    27.651     7.787
     2   6 C        2.839     0.106    25.644     8.299
     3   6 C        3.911     0.024    20.116     6.375
     4   6 C        2.980     0.012    27.731     8.638
     5   6 C        2.918    -0.074    29.847     8.959
     6   6 C        2.863     0.134    25.066     8.207
     7   8 O        1.706    -0.221    17.662     5.674
     8   6 C        3.644     0.025    20.500     6.508
     9   6 C        2.863     0.132    25.117     8.215
    10   8 O        1.706    -0.221    17.665     5.675
    11   6 C        3.645     0.025    20.498     6.507
    12   6 C        2.914    -0.072    29.785     8.949
    13   6 C        2.920    -0.046    29.153     8.854
    14   6 C        2.865    -0.085    30.118     8.996
    15   6 C        2.838    -0.121    31.057     9.133
    16   6 C        2.841     0.021    27.537     8.600
    17   7 N        2.732    -0.050    22.202     6.998
    18   6 C        3.753    -0.006    20.741     6.494
    19   6 C        3.807    -0.071    21.844     6.653
    20   6 C        2.968     0.008    27.836     8.654
    21   6 C        2.922    -0.044    29.104     8.847
    22   6 C        2.913    -0.065    29.622     8.925
    23   6 C        2.864     0.136    25.034     8.201
    24   8 O        1.706    -0.214    17.556     5.657
    25   6 C        3.645     0.023    20.522     6.511
    26   6 C        2.862     0.136    25.030     8.201
    27   8 O        1.706    -0.217    17.603     5.665
    28   6 C        3.645     0.025    20.493     6.507
    29   6 C        2.919    -0.076    29.901     8.967
    30   6 C        3.700    -0.057    21.768     6.672
    31   6 C        3.854    -0.006    20.641     6.462
    32   6 C        3.755    -0.118    22.807     6.809
    33   6 C        3.755    -0.118    22.819     6.811
    34   1 H        0.926     0.059     2.205     2.322
    35   1 H        0.924     0.057     2.237     2.339
    36   1 H        0.925     0.085     1.932     2.174
    37   1 H        0.924     0.054     2.266     2.354
    38   1 H        0.924     0.058     2.228     2.334
    39   1 H        0.925     0.084     1.933     2.174
    40   1 H        0.924     0.052     2.299     2.371
    41   1 H        0.926     0.057     2.238     2.339
    42   1 H        0.926     0.049     2.326     2.385
    43   1 H        0.926     0.067     2.120     2.277
    44   1 H        0.926     0.055     2.256     2.349
    45   1 H        0.926     0.043     2.406     2.426
    46   1 H        0.926     0.051     2.312     2.378
    47   1 H        0.923     0.018     2.772     2.604
    48   1 H        0.925     0.048     2.351     2.398
    49   1 H        0.924     0.054     2.270     2.356
    50   1 H        0.924     0.057     2.229     2.335
    51   1 H        0.924     0.057     2.234     2.337
    52   1 H        0.924     0.053     2.281     2.362
    53   1 H        0.926     0.051     2.308     2.376
    54   1 H        0.926     0.061     2.183     2.310
    55   1 H        0.924     0.058     2.224     2.332
    56   1 H        0.924     0.060     2.204     2.322
    57   1 H        0.925     0.085     1.927     2.171
    58   1 H        0.925     0.084     1.934     2.175
    59   1 H        0.924     0.054     2.276     2.360
    60   1 H        0.924     0.057     2.236     2.339
    61   1 H        0.926     0.054     2.276     2.359
    62   1 H        0.924     0.059     2.207     2.323
    63   1 H        0.924     0.065     2.141     2.288
    64   1 H        0.925     0.061     2.182     2.310
    65   1 H        0.924     0.044     2.394     2.420
    66   1 H        0.925     0.065     2.139     2.287
    67   1 H        0.925     0.037     2.494     2.470
    68   1 H        0.925     0.056     2.249     2.345
    69   1 H        0.925     0.070     2.084     2.258
    70   1 H        0.925     0.042     2.422     2.434
    71   1 H        0.925     0.055     2.253     2.347
    72   1 H        0.860     0.162     1.325     1.803

Wiberg/Mayer (AO) data.
largest (>0.10) Wiberg bond orders for each atom

     #   Z sym  total        # sym  WBO       # sym  WBO       # sym  WBO
 ---------------------------------------------------------------------------
     1   7 N    3.011 --     2 C    1.958    72 H    0.937
     2   6 C    3.928 --     1 N    1.958     3 C    0.966    47 H    0.929
     3   6 C    3.960 --    14 C    1.062     2 C    0.966    31 C    0.928
                             4 C    0.908
     4   6 C    3.873 --    13 C    1.400     5 C    1.378     3 C    0.908
     5   6 C    3.951 --     6 C    1.391     4 C    1.378    34 H    0.958
     6   6 C    3.894 --     5 C    1.391     9 C    1.214     7 O    1.111
     7   8 O    2.255 --     6 C    1.111     8 C    0.975
     8   6 C    3.927 --    36 H    0.976     7 O    0.975    35 H    0.972
                            37 H    0.972
     9   6 C    3.887 --    12 C    1.383     6 C    1.214    10 O    1.110
    10   8 O    2.251 --     9 C    1.110    11 C    0.976
    11   6 C    3.927 --    39 H    0.976    10 O    0.976    38 H    0.973
                            40 H    0.972
    12   6 C    3.952 --    13 C    1.406     9 C    1.383    41 H    0.962
    13   6 C    3.935 --    12 C    1.406     4 C    1.400    42 H    0.962
    14   6 C    3.138 --     3 C    1.062    44 H    0.977    43 H    0.975
    15   6 C    3.807 --    16 C    1.733    46 H    0.976    45 H    0.974
    16   6 C    3.942 --    15 C    1.733    17 N    1.199    48 H    0.958
    17   7 N    3.352 --    16 C    1.199    30 C    1.007    18 C    1.006
    18   6 C    3.962 --    17 N    1.006    49 H    0.968    50 H    0.967
                            19 C    0.960
    19   6 C    3.971 --    20 C    1.016    52 H    0.973    51 H    0.967
                            18 C    0.960
    20   6 C    3.925 --    21 C    1.387    29 C    1.387    19 C    1.016
    21   6 C    3.928 --    22 C    1.429    20 C    1.387    53 H    0.967
    22   6 C    3.950 --    21 C    1.429    23 C    1.371    54 H    0.962
    23   6 C    3.872 --    22 C    1.371    26 C    1.209    24 O    1.119
    24   8 O    2.249 --    23 C    1.119    25 C    0.974
    25   6 C    3.924 --    57 H    0.976    24 O    0.974    55 H    0.971
                            56 H    0.971
    26   6 C    3.879 --    29 C    1.385    23 C    1.209    27 O    1.113
    27   8 O    2.250 --    26 C    1.113    28 C    0.976
    28   6 C    3.927 --    27 O    0.976    58 H    0.976    60 H    0.972
                            59 H    0.972
    29   6 C    3.949 --    20 C    1.387    26 C    1.385    61 H    0.961
    30   6 C    3.965 --    17 N    1.007    64 H    0.980    62 H    0.967
                            63 H    0.966
    31   6 C    3.954 --    32 C    1.010    33 C    1.006    65 H    0.958
                             3 C    0.928
    32   6 C    3.975 --    31 C    1.010    67 H    0.980    68 H    0.979
                            66 H    0.974
    33   6 C    3.965 --    31 C    1.006    71 H    0.979    70 H    0.976
                            69 H    0.971
    34   1 H    0.995 --     5 C    0.958
    35   1 H    0.991 --     8 C    0.972
    36   1 H    0.992 --     8 C    0.976
    37   1 H    0.991 --     8 C    0.972
    38   1 H    0.991 --    11 C    0.973
    39   1 H    0.992 --    11 C    0.976
    40   1 H    0.991 --    11 C    0.972
    41   1 H    0.994 --    12 C    0.962
    42   1 H    0.996 --    13 C    0.962
    43   1 H    0.995 --    14 C    0.975
    44   1 H    0.996 --    14 C    0.977
    45   1 H    0.998 --    15 C    0.974
    46   1 H    0.997 --    15 C    0.976
    47   1 H    0.977 --     2 C    0.929
    48   1 H    0.997 --    16 C    0.958
    49   1 H    0.993 --    18 C    0.968
    50   1 H    0.994 --    18 C    0.967
    51   1 H    0.993 --    19 C    0.967
    52   1 H    0.996 --    19 C    0.973
    53   1 H    0.996 --    21 C    0.967
    54   1 H    0.994 --    22 C    0.962
    55   1 H    0.989 --    25 C    0.971
    56   1 H    0.989 --    25 C    0.971
    57   1 H    0.992 --    25 C    0.976
    58   1 H    0.992 --    28 C    0.976
    59   1 H    0.990 --    28 C    0.972
    60   1 H    0.990 --    28 C    0.972
    61   1 H    0.995 --    29 C    0.961
    62   1 H    0.982 --    30 C    0.967
    63   1 H    0.989 --    30 C    0.966
    64   1 H    0.996 --    30 C    0.980
    65   1 H    0.988 --    31 C    0.958
    66   1 H    0.990 --    32 C    0.974
    67   1 H    0.995 --    32 C    0.980
    68   1 H    0.992 --    32 C    0.979
    69   1 H    0.988 --    33 C    0.971
    70   1 H    0.995 --    33 C    0.976
    71   1 H    0.992 --    33 C    0.979
    72   1 H    0.964 --     1 N    0.937
 ---------------------------------------------------------------------------

molecular dipole:
                 x           y           z       tot (Debye)
 q only:        0.577      -0.065      -0.107
   full:        0.902      -0.158      -0.399       2.540

           -------------------------------------------------
          | TOTAL ENERGY              -99.330832975396 Eh   |
          | GRADIENT NORM               0.002194262044 Eh/α |
          | HOMO-LUMO GAP               0.840627505012 eV   |
           -------------------------------------------------

 * finished run on 2024/04/06 at 11:13:17.378
