   * xtb version 6.6.1 (8d0f1dd) compiled by 'conda@1efc2f54142f' on 2023-08-01
          program call               : xtb struc.xyz --opt loose --input .xc1 --gfn2

   ID    Z sym.   atoms
    1    6 C      1, 3, 5-7, 10, 11, 14
    2    7 N      2, 4, 9, 13
    3    8 O      8, 12
    4    1 H      15-25
constraining bond 3 16 to    5.1400000 Å, actual value:    2.7548643 Å

          :  Hamiltonian                  GFN2-xTB          :
 * total energy  :   -21.9325309 Eh     change       -0.6650680E-10 Eh
 * total energy  :   -30.9386470 Eh     change       -0.9006116E+01 Eh
 * total energy  :   -36.7995601 Eh     change       -0.5860913E+01 Eh
 * total energy  :   -40.2619011 Eh     change       -0.3462341E+01 Eh
 * total energy  :   -41.6513764 Eh     change       -0.1389475E+01 Eh
 * total energy  :   -41.8547339 Eh     change       -0.2033575E+00 Eh
 * total energy  :   -41.8645780 Eh     change       -0.9844151E-02 Eh
 * total energy  :   -41.8864403 Eh     change       -0.2186225E-01 Eh
 * total energy  :   -41.9124399 Eh     change       -0.2599968E-01 Eh
 * total energy  :   -41.9262531 Eh     change       -0.1381315E-01 Eh
 * total energy  :   -42.0874723 Eh     change       -0.2649439E-04 Eh
 * total energy  :   -42.0875731 Eh     change       -0.1007946E-03 Eh
 * total energy  :   -42.0876229 Eh     change       -0.4984261E-04 Eh
 * total energy  :   -42.0876740 Eh     change       -0.5111264E-04 Eh
 * total energy  :   -42.0877407 Eh     change       -0.6673045E-04 Eh
 * total energy  :   -42.0877828 Eh     change       -0.4200923E-04 Eh
 * total energy  :   -42.0877520 Eh     change        0.3077330E-04 Eh
 * total energy  :   -42.0878456 Eh     change       -0.9366551E-04 Eh
 * total energy  :   -42.0878617 Eh     change       -0.1608252E-04 Eh
   *** GEOMETRY OPTIMIZATION CONVERGED AFTER 65 ITERATIONS ***

 final structure:
================
25
 xtb: 6.6.1 (8d0f1dd)
C            3.12790292071651        1.54720296244102       -0.00148055564603
N            2.37251555680215        0.36970707842267        0.00993229264137
C            2.48600942136175       -2.60809907363569        0.26673992954805
N            1.24089734462721       -2.31266369341689        0.20213548079435
C            0.51409182232528       -1.12044483476997        0.06646271328747
C            1.09837149705951        0.17763954494679        0.02508985208357
C            0.15102495901515        1.35677248277883       -0.00594042546010
O            0.55416033899138        2.49480492614413        0.02855734952293
N           -1.18082293663580        1.05950518567182       -0.08046984991295
C           -2.13918226981371        2.15798086440373       -0.13408751000141
C           -1.73479683588634       -0.20160354085183       -0.10848732592100
O           -2.91863090621416       -0.37788711884716       -0.19894685695645
N           -0.83900660575768       -1.27785345510875       -0.01385311981971
C           -1.46289472270895       -2.59286496780433       -0.01847782760684
H            3.90723986605717        1.43320595846163       -0.76446517303308
H            2.58425943778948        2.50989669161378       -0.16474996985568
H            3.64247522611448        1.62162238576642        0.96392903449344
H            3.24593881207903       -1.83508356637070        0.20805795735287
H           -1.59205424712394        3.09708527099953       -0.13250487907203
H           -2.74237602419201        2.07011593676661       -1.03739528860141
H           -2.80265950274443        2.10631130190282        0.72899753398520
H           -1.32923951531248       -3.10203532742519        0.93811927075995
H           -1.10251749995897       -3.20224614085514       -0.84861469793836
H           -2.53337361423657       -2.43358297509836       -0.16047828121192
H            0.61309899174592       -3.11924735453677        0.26310196446725

          :  Hamiltonian                  GFN2-xTB          :
         :: total energy             -42.087861729581 Eh    ::
         :: gradient norm              0.003405298302 Eh/a0 ::
         :: HOMO-LUMO gap              0.188770202078 eV    ::
         :: SCC energy               -42.595530373832 Eh    ::
         :: -> dispersion             -0.022106331224 Eh    ::
         :: repulsion energy           0.507508746573 Eh    ::

    * Orbital Energies and Occupations

         #    Occupation            Energy/Eh            Energy/eV
      -------------------------------------------------------------
         1        2.0000           -0.8962450             -24.3881
       ...           ...                  ...                  ...
        25        1.9999           -0.6765914             -18.4110
        26        1.9998           -0.6678604             -18.1734
        27        1.9994           -0.6473918             -17.6164
        28        1.9993           -0.6433338             -17.5060
        29        1.9989           -0.6358994             -17.3037
        30        1.9986           -0.6323920             -17.2083
        31        1.9969           -0.6202819             -16.8787
        32        1.9942           -0.6101188             -16.6022
        33        1.9909           -0.6030141             -16.4088
        34        1.9836           -0.5937266             -16.1561
        35        1.9666           -0.5822870             -15.8448
        36        1.7392           -0.5478029             -14.9065
        37        1.2543           -0.5259946             -14.3130 (HOMO)
        38        1.0409           -0.5190574             -14.1243 (LUMO)
        39        0.0359           -0.4543868             -12.3645
        40        0.0015           -0.4041629             -10.9978
        41        0.0005           -0.3854894             -10.4897
        42        0.0000           -0.3026694              -8.2361
        43                         -0.2116157              -5.7584
        44                         -0.1750808              -4.7642
        45                         -0.1516587              -4.1268
        46                         -0.1013042              -2.7566
        47                         -0.0882608              -2.4017
        48                         -0.0570539              -1.5525
       ...                                ...                  ...
        67                          0.5388115              14.6618
      -------------------------------------------------------------
                  HL-Gap            0.0069372 Eh            0.1888 eV

     #   Z          covCN         q      C6AA      α(0)
     1   6 C        3.685    -0.053    21.731     6.674
     2   7 N        1.831    -0.118    24.332     7.310
     3   6 C        1.841    -0.061    32.821     9.255
     4   7 N        2.687     0.005    21.172     6.834
     5   6 C        2.833     0.089    26.016     8.358
     6   6 C        2.884     0.054    26.787     8.485
     7   6 C        2.768     0.269    22.466     7.763
     8   8 O        0.859    -0.323    20.200     6.026
     9   7 N        2.738    -0.065    22.496     7.044
    10   6 C        3.710    -0.063    21.850     6.680
    11   6 C        2.726     0.318    21.589     7.607
    12   8 O        0.860    -0.347    20.647     6.092
    13   7 N        2.743    -0.044    22.100     6.982
    14   6 C        3.702    -0.084    22.266     6.747
    15   1 H        0.924     0.121     1.605     1.981
    16   1 H        0.920     0.136     1.488     1.908
    17   1 H        0.924     0.126     1.565     1.956
    18   1 H        0.925     0.130     1.534     1.937
    19   1 H        0.925     0.115     1.653     2.011
    20   1 H        0.925     0.108     1.714     2.047
    21   1 H        0.925     0.106     1.730     2.057
    22   1 H        0.924     0.095     1.835     2.119
    23   1 H        0.924     0.094     1.838     2.120
    24   1 H        0.924     0.141     1.452     1.885
    25   1 H        0.859     0.250     0.885     1.473

Wiberg/Mayer (AO) data.
largest (>0.10) Wiberg bond orders for each atom

     #   Z sym  total        # sym  WBO       # sym  WBO       # sym  WBO
 ---------------------------------------------------------------------------
     1   6 C    3.864 --     2 N    1.109    15 H    0.918    17 H    0.902
                            16 H    0.879
     2   7 N    2.837 --     6 C    1.566     1 C    1.109
     3   6 C    2.674 --     4 N    1.627    18 H    0.907
     4   7 N    3.662 --     3 C    1.627     5 C    1.082    25 H    0.865
     5   6 C    3.666 --    13 N    1.216     6 C    1.207     4 N    1.082
     6   6 C    3.917 --     2 N    1.566     5 C    1.207     7 C    0.929
     7   6 C    3.894 --     8 O    1.703     9 N    1.164     6 C    0.929
     8   8 O    2.019 --     7 C    1.703     9 N    0.137
     9   7 N    3.549 --     7 C    1.164    11 C    1.107    10 C    0.960
                             8 O    0.137    12 O    0.119
    10   6 C    3.891 --    19 H    0.967     9 N    0.960    21 H    0.959
                            20 H    0.959
    11   6 C    3.939 --    12 O    1.696     9 N    1.107    13 N    1.053
    12   8 O    2.012 --    11 C    1.696     9 N    0.119    13 N    0.109
    13   7 N    3.482 --     5 C    1.216    11 C    1.053    14 C    0.978
                            12 O    0.109
    14   6 C    3.913 --    13 N    0.978    23 H    0.960    22 H    0.957
                            24 H    0.951
    15   1 H    0.948 --     1 C    0.918
    16   1 H    0.914 --     1 C    0.879
    17   1 H    0.942 --     1 C    0.902
    18   1 H    0.939 --     3 C    0.907
    19   1 H    0.984 --    10 C    0.967
    20   1 H    0.979 --    10 C    0.959
    21   1 H    0.979 --    10 C    0.959
    22   1 H    0.981 --    14 C    0.957
    23   1 H    0.982 --    14 C    0.960
    24   1 H    0.978 --    14 C    0.951
    25   1 H    0.917 --     4 N    0.865
 ---------------------------------------------------------------------------

molecular dipole:
                 x           y           z       tot (Debye)
 q only:        1.328      -1.521       0.124
   full:        1.223      -1.327       0.130       4.599

           -------------------------------------------------
          | TOTAL ENERGY              -42.087861729581 Eh   |
          | GRADIENT NORM               0.003405298302 Eh/α |
          | HOMO-LUMO GAP               0.188770202078 eV   |
           -------------------------------------------------

 * finished run on 2024/06/05 at 19:59:10.041
