   * xtb version 6.6.1 (8d0f1dd) compiled by 'conda@1efc2f54142f' on 2023-08-01
          program call               : xtb xtbopt.xyz --opt crude --input .xc2 --gfn2

   ID    Z sym.   atoms
    1    6 C      1, 3, 5-7, 10, 11, 14
    2    7 N      2, 4, 9, 13
    3    8 O      8, 12
    4    1 H      15-25
########################################################################
[WARNING] Please study the warnings concerning your input carefully
-1- readin_getIntValue: could not parse ''
########################################################################

          :  Hamiltonian                  GFN2-xTB          :
 * total energy  :   -42.0878919 Eh     change       -0.4123279E-10 Eh
 * total energy  :   -42.0911762 Eh     change       -0.3284325E-02 Eh
 * total energy  :   -42.0937986 Eh     change       -0.2622385E-02 Eh
 * total energy  :   -42.0942419 Eh     change       -0.4432844E-03 Eh
   *** GEOMETRY OPTIMIZATION CONVERGED AFTER 4 ITERATIONS ***

 final structure:
================
25
 xtb: 6.6.1 (8d0f1dd)
C            3.16159332594771        1.39502138787386        0.02582995676554
N            2.35048490193495        0.26040975079500        0.03581255351552
C            2.55775504202531       -2.31698068128982        0.23439845999096
N            1.27539516237482       -2.23293490598448        0.18648987694557
C            0.46095837068535       -1.11139702048727        0.06557280756812
C            1.06308777666233        0.16267894739998        0.03014246308202
C            0.14455864506434        1.35512659823637       -0.01501756653581
O            0.56407280351225        2.48826272940028        0.00684778481355
N           -1.19042984796456        1.06111966474621       -0.08434428215411
C           -2.14219976323635        2.16556591481899       -0.14026790581140
C           -1.76361313126148       -0.19666286451012       -0.10271079325182
O           -2.94944006981704       -0.35950114856483       -0.18664902014212
N           -0.88175392400087       -1.28404033210613       -0.01050625453104
C           -1.48448679651245       -2.60505676081158       -0.01516076978434
H            3.92460958840426        1.28708864599498       -0.74985043133521
H            2.57535664847788        2.30472319542664       -0.14776218687361
H            3.67862189094683        1.48741566529951        0.98691193806214
H            3.20117950742050       -1.44198164363872        0.18083362250771
H           -1.59005132494566        3.10160117847624       -0.14224465786771
H           -2.74704064670738        2.07797432298128       -1.04242867371289
H           -2.80516651038610        2.11949973228301        0.72360157624288
H           -1.32403127559385       -3.11568438440645        0.93653010157178
H           -1.11237742021923       -3.20362101107342       -0.84821577265762
H           -2.55886905309805       -2.46484042710973       -0.14705187941066
H            0.75221761438652       -3.11554801215082        0.25041067090199

          :  Hamiltonian                  GFN2-xTB          :
         :: total energy             -42.094241907904 Eh    ::
         :: gradient norm              0.009714865253 Eh/a0 ::
         :: HOMO-LUMO gap              0.134435655763 eV    ::
         :: SCC energy               -42.608075621104 Eh    ::
         :: -> dispersion             -0.022356623055 Eh    ::
         :: repulsion energy           0.513702309977 Eh    ::

    * Orbital Energies and Occupations

         #    Occupation            Energy/Eh            Energy/eV
      -------------------------------------------------------------
         1        2.0000           -0.8956545             -24.3720
       ...           ...                  ...                  ...
        25        1.9999           -0.6780940             -18.4519
        26        1.9999           -0.6768871             -18.4190
        27        1.9995           -0.6470152             -17.6062
        28        1.9993           -0.6424476             -17.4819
        29        1.9991           -0.6391332             -17.3917
        30        1.9987           -0.6326251             -17.2146
        31        1.9970           -0.6197068             -16.8631
        32        1.9946           -0.6103496             -16.6085
        33        1.9919           -0.6040010             -16.4357
        34        1.9855           -0.5946886             -16.1823
        35        1.9669           -0.5814664             -15.8225
        36        1.8586           -0.5575787             -15.1725
        37        1.1587           -0.5218546             -14.2004 (HOMO)
        38        1.0040           -0.5169142             -14.0660 (LUMO)
        39        0.0444           -0.4568612             -12.4318
        40        0.0017           -0.4046801             -11.0119
        41        0.0005           -0.3861077             -10.5065
        42        0.0000           -0.3011069              -8.1935
        43                         -0.2085941              -5.6761
        44                         -0.1694812              -4.6118
        45                         -0.1484953              -4.0408
        46                         -0.1003160              -2.7297
        47                         -0.0823387              -2.2406
        48                         -0.0437555              -1.1906
       ...                                ...                  ...
        67                          0.5394577              14.6794
      -------------------------------------------------------------
                  HL-Gap            0.0049404 Eh            0.1344 eV

     #   Z          covCN         q      C6AA      α(0)
     1   6 C        3.692    -0.055    21.756     6.674
     2   7 N        1.838    -0.119    24.368     7.315
     3   6 C        1.847    -0.068    32.998     9.280
     4   7 N        2.688     0.011    21.061     6.816
     5   6 C        2.854     0.088    26.039     8.364
     6   6 C        2.892     0.049    26.904     8.504
     7   6 C        2.767     0.270    22.447     7.759
     8   8 O        0.858    -0.325    20.241     6.032
     9   7 N        2.738    -0.067    22.537     7.051
    10   6 C        3.710    -0.063    21.844     6.679
    11   6 C        2.726     0.318    21.599     7.608
    12   8 O        0.860    -0.345    20.616     6.088
    13   7 N        2.740    -0.042    22.056     6.975
    14   6 C        3.700    -0.080    22.199     6.738
    15   1 H        0.924     0.117     1.638     2.002
    16   1 H        0.924     0.136     1.491     1.910
    17   1 H        0.924     0.121     1.606     1.982
    18   1 H        0.925     0.157     1.349     1.816
    19   1 H        0.925     0.115     1.655     2.012
    20   1 H        0.925     0.108     1.716     2.048
    21   1 H        0.925     0.106     1.731     2.058
    22   1 H        0.924     0.093     1.851     2.128
    23   1 H        0.924     0.092     1.857     2.131
    24   1 H        0.924     0.137     1.480     1.902
    25   1 H        0.859     0.248     0.893     1.480

Wiberg/Mayer (AO) data.
largest (>0.10) Wiberg bond orders for each atom

     #   Z sym  total        # sym  WBO       # sym  WBO       # sym  WBO
 ---------------------------------------------------------------------------
     1   6 C    3.874 --     2 N    1.095    15 H    0.924    17 H    0.911
                            16 H    0.884
     2   7 N    2.901 --     6 C    1.536     1 C    1.095     3 C    0.108
     3   6 C    2.730 --     4 N    1.614    18 H    0.858     2 N    0.108
     4   7 N    3.668 --     3 C    1.614     5 C    1.091    25 H    0.874
     5   6 C    3.698 --     6 C    1.221    13 N    1.215     4 N    1.091
     6   6 C    3.917 --     2 N    1.536     5 C    1.221     7 C    0.937
     7   6 C    3.899 --     8 O    1.698     9 N    1.163     6 C    0.937
     8   8 O    2.038 --     7 C    1.698     9 N    0.140
     9   7 N    3.552 --     7 C    1.163    11 C    1.102    10 C    0.961
                             8 O    0.140    12 O    0.120
    10   6 C    3.892 --    19 H    0.967     9 N    0.961    21 H    0.959
                            20 H    0.959
    11   6 C    3.940 --    12 O    1.700     9 N    1.102    13 N    1.052
    12   8 O    2.014 --    11 C    1.700     9 N    0.120    13 N    0.110
    13   7 N    3.483 --     5 C    1.215    11 C    1.052    14 C    0.977
                            12 O    0.110
    14   6 C    3.914 --    13 N    0.977    23 H    0.962    22 H    0.960
                            24 H    0.955
    15   1 H    0.953 --     1 C    0.924
    16   1 H    0.928 --     1 C    0.884
    17   1 H    0.947 --     1 C    0.911
    18   1 H    0.937 --     3 C    0.858
    19   1 H    0.984 --    10 C    0.967
    20   1 H    0.979 --    10 C    0.959
    21   1 H    0.979 --    10 C    0.959
    22   1 H    0.981 --    14 C    0.960
    23   1 H    0.982 --    14 C    0.962
    24   1 H    0.979 --    14 C    0.955
    25   1 H    0.917 --     4 N    0.874
 ---------------------------------------------------------------------------

molecular dipole:
                 x           y           z       tot (Debye)
 q only:        1.415      -1.633       0.128
   full:        1.266      -1.508       0.136       5.016

           -------------------------------------------------
          | TOTAL ENERGY              -42.094241907904 Eh   |
          | GRADIENT NORM               0.009714865253 Eh/α |
          | HOMO-LUMO GAP               0.134435655763 eV   |
           -------------------------------------------------

 * finished run on 2024/06/05 at 19:59:10.275
