   * xtb version 6.6.1 (8d0f1dd) compiled by 'conda@1efc2f54142f' on 2023-08-01
          program call               : xtb xtbopt.xyz --opt crude --input .xc2 --gfn2

   ID    Z sym.   atoms
    1    6 C      1, 3, 5-7, 10, 11, 14
    2    7 N      2, 4, 9, 13
    3    8 O      8, 12
    4    1 H      15-25

          :  Hamiltonian                  GFN2-xTB          :
 * total energy  :   -42.1039679 Eh     change       -0.3552714E-12 Eh
   *** GEOMETRY OPTIMIZATION CONVERGED AFTER 1 ITERATIONS ***

 final structure:
================
25
 xtb: 6.6.1 (8d0f1dd)
C            3.25827593360239        1.06053381978505       -0.03820183153037
N            2.31455360306525       -0.02450788015454       -0.02955287259800
C            2.59287474552924       -1.32499546281705       -0.00799522202596
N            1.44317621527375       -2.03985240318863        0.01682995054164
C            0.40043092156857       -1.16259109753675        0.01045288347055
C            0.94299828979489        0.11612052607152       -0.01727737168283
C            0.13293589949650        1.29591391637038       -0.05067574810206
O            0.50048560497659        2.44911194666355       -0.09894773284995
N           -1.26656013158163        0.96696472458856       -0.02758892744417
C           -2.13624427708945        1.98403970678468       -0.05155134280962
C           -1.82259070579103       -0.34704101875350        0.01574487967857
O           -3.01065030846298       -0.51655892399413        0.04042833307686
N           -0.92523600390168       -1.41042257510421        0.02599966981323
C           -1.44589391910899       -2.76560118360701        0.04730756459201
H            3.72210151630086        1.16757157165168        0.94383233214812
H            4.03743022473525        0.87813730809682       -0.77689359773850
H            2.72997296795549        1.98287393709728       -0.27637698384149
H            3.57565460555382       -1.75189877757799       -0.01210199689237
H           -3.56387802796797        4.85418883187600        0.25478080498736
H           -1.74158472518781        2.98367908435320       -0.08041636708319
H           -3.18722222127396        1.76721759310739       -0.04422630113590
H           -1.13946214011481       -3.27766811628968        0.95960107549530
H           -1.10375611549834       -3.31654262619738       -0.82882132273798
H           -2.53280811121979       -2.70256331776547        0.02521647624306
H            1.38542767344206       -3.04787104183568        0.03160526631418

          :  Hamiltonian                  GFN2-xTB          :
         :: total energy             -42.103967945310 Eh    ::
         :: gradient norm              0.002583259536 Eh/a0 ::
         :: HOMO-LUMO gap              0.079031170846 eV    ::
         :: SCC energy               -42.624580329876 Eh    ::
         :: -> dispersion             -0.022621613114 Eh    ::
         :: repulsion energy           0.520540329874 Eh    ::

    * Orbital Energies and Occupations

         #    Occupation            Energy/Eh            Energy/eV
      -------------------------------------------------------------
         1        2.0000           -0.9105433             -24.7771
       ...           ...                  ...                  ...
        25        2.0000           -0.6708383             -18.2544
        26        2.0000           -0.6684874             -18.1905
        27        2.0000           -0.6621961             -18.0193
        28        1.9999           -0.6327662             -17.2184
        29        1.9999           -0.6294623             -17.1285
        30        1.9999           -0.6275426             -17.0763
        31        1.9998           -0.6183458             -16.8260
        32        1.9997           -0.6136137             -16.6973
        33        1.9997           -0.6124436             -16.6654
        34        1.9982           -0.5847612             -15.9122
        35        1.9941           -0.5658100             -15.3965
        36        1.9905           -0.5580868             -15.1863
        37        0.9853           -0.4730595             -12.8726 (HOMO)
        38        0.8939           -0.4701551             -12.7936 (LUMO)
        39        0.1182           -0.4297076             -11.6929
        40        0.0177           -0.3988429             -10.8531
        41        0.0032           -0.3715816             -10.1113
        42        0.0000           -0.2869214              -7.8075
        43        0.0000           -0.2077488              -5.6531
        44                         -0.1962140              -5.3393
        45                         -0.1502955              -4.0897
        46                         -0.1451727              -3.9504
        47                         -0.0782520              -2.1293
        48                         -0.0540305              -1.4702
       ...                                ...                  ...
        67                          0.5481269              14.9153
      -------------------------------------------------------------
                  HL-Gap            0.0029043 Eh            0.0790 eV

     #   Z          covCN         q      C6AA      α(0)
     1   6 C        3.691    -0.093    22.480     6.785
     2   7 N        2.830     0.077    19.896     6.625
     3   6 C        3.049     0.047    26.906     8.507
     4   7 N        2.791    -0.058    22.364     7.024
     5   6 C        3.041     0.105    25.633     8.304
     6   6 C        3.109    -0.023    28.439     8.737
     7   6 C        2.775     0.254    22.738     7.810
     8   8 O        0.857    -0.364    20.967     6.139
     9   7 N        2.741    -0.031    21.838     6.941
    10   6 C        2.816    -0.022    28.552     8.755
    11   6 C        2.739     0.308    21.764     7.638
    12   8 O        0.859    -0.351    20.721     6.103
    13   7 N        2.737    -0.049    22.188     6.996
    14   6 C        3.698    -0.074    22.078     6.720
    15   1 H        0.924     0.108     1.713     2.047
    16   1 H        0.925     0.104     1.751     2.069
    17   1 H        0.925     0.134     1.505     1.918
    18   1 H        0.926     0.123     1.587     1.970
    19   1 H        0.000     0.018     6.896     4.802
    20   1 H        0.926     0.133     1.512     1.923
    21   1 H        0.926     0.130     1.536     1.938
    22   1 H        0.925     0.085     1.933     2.174
    23   1 H        0.925     0.083     1.946     2.181
    24   1 H        0.925     0.127     1.556     1.951
    25   1 H        0.860     0.229     0.971     1.543

Wiberg/Mayer (AO) data.
largest (>0.10) Wiberg bond orders for each atom

     #   Z sym  total        # sym  WBO       # sym  WBO       # sym  WBO
 ---------------------------------------------------------------------------
     1   6 C    3.917 --     2 N    0.987    16 H    0.965    17 H    0.961
                            15 H    0.955
     2   7 N    3.648 --     3 C    1.378     6 C    1.146     1 C    0.987
     3   6 C    3.820 --     2 N    1.378     4 N    1.266    18 H    0.953
     4   7 N    3.578 --     3 C    1.266     5 C    1.194    25 H    0.919
     5   6 C    3.898 --     6 C    1.328     4 N    1.194    13 N    1.189
     6   6 C    3.909 --     5 C    1.328     2 N    1.146     7 C    1.117
     7   6 C    3.867 --     8 O    1.672     6 C    1.117     9 N    0.986
     8   8 O    1.954 --     7 C    1.672     9 N    0.107
     9   7 N    3.615 --    10 C    1.349    11 C    1.012     7 C    0.986
                             8 O    0.107
    10   6 C    3.350 --     9 N    1.349    21 H    0.960    20 H    0.956
    11   6 C    3.904 --    12 O    1.707    13 N    1.090     9 N    1.012
    12   8 O    2.019 --    11 C    1.707    13 N    0.135
    13   7 N    3.566 --     5 C    1.189    11 C    1.090    14 C    0.970
                            12 O    0.135
    14   6 C    3.924 --    23 H    0.972    22 H    0.971    13 N    0.970
                            24 H    0.965
    15   1 H    0.983 --     1 C    0.955
    16   1 H    0.986 --     1 C    0.965
    17   1 H    0.982 --     1 C    0.961
    18   1 H    0.984 --     3 C    0.953
    19   1 H    0.003
    20   1 H    0.981 --    10 C    0.956
    21   1 H    0.982 --    10 C    0.960
    22   1 H    0.991 --    14 C    0.971
    23   1 H    0.991 --    14 C    0.972
    24   1 H    0.983 --    14 C    0.965
    25   1 H    0.947 --     4 N    0.919
 ---------------------------------------------------------------------------

molecular dipole:
                 x           y           z       tot (Debye)
 q only:        2.346      -2.028       0.011
   full:        2.578      -2.479       0.026       9.090

           -------------------------------------------------
          | TOTAL ENERGY              -42.103967945310 Eh   |
          | GRADIENT NORM               0.002583259536 Eh/α |
          | HOMO-LUMO GAP               0.079031170846 eV   |
           -------------------------------------------------

 * finished run on 2024/06/05 at 19:59:16.224
