   * xtb version 6.6.1 (8d0f1dd) compiled by 'conda@1efc2f54142f' on 2023-08-01
          program call               : xtb xtbopt.xyz --opt crude --input .xc2 --gfn2

   ID    Z sym.   atoms
    1    6 C      1, 3, 5-7, 10, 11, 14
    2    7 N      2, 4, 9, 13
    3    8 O      8, 12
    4    1 H      15-25
########################################################################
[WARNING] Please study the warnings concerning your input carefully
-1- readin_getIntValue: could not parse ''
########################################################################

          :  Hamiltonian                  GFN2-xTB          :
 * total energy  :   -41.9937559 Eh     change       -0.3375078E-11 Eh
   *** GEOMETRY OPTIMIZATION CONVERGED AFTER 1 ITERATIONS ***

 final structure:
================
25
 xtb: 6.6.1 (8d0f1dd)
C            3.23257164869958        1.20906935358214        0.29231481747358
N            2.22225548507513        0.25222346048503       -0.04085606143216
C            2.18268345200534       -0.99681181709824        0.69455482869546
N            1.22617222113412       -1.89219558786124        0.05810065915868
C            0.25967190961068       -0.97163999259768        0.07463792101054
C            1.07554370601904        0.02187645008663        0.82420381942243
C           -1.52579997979672        1.73824063375618       -1.68048589963566
O           -1.55550850879687        2.16415000801735       -2.74124899440894
N           -1.44929964882225        1.18293158262730       -0.55972134727912
C           -1.22169707955478        1.89513164783455        0.70290603868902
C           -1.99092110559355       -0.23732226196595       -0.45748851675904
O           -3.15770376287355       -0.39875087992202       -0.61445400708822
N           -1.05034504892374       -1.18458347898334       -0.23017034447934
C           -1.50004161103799       -2.57633984402868       -0.34127315267775
H            3.50513136077428        1.20155212209397        1.35383393634247
H            4.11740226348693        0.98290983573695       -0.30356478170460
H            2.87204718462977        2.19985331061746        0.02071801570169
H            2.96344613713134       -1.35113116698200        1.34000215924279
H           -1.00564056794110        2.94087859201380        0.50553985545459
H           -2.11603147966201        1.81394371666328        1.31968629702441
H           -0.36003392134136        1.42365781336234        1.19933735865639
H           -1.14071525110994       -3.14371220070621        0.51491284140208
H           -1.12794018869783       -3.01924467693466       -1.26450613850949
H           -2.58663488680021       -2.59521727977577       -0.35359541108066
H            1.29181918647553       -2.84123079842111       -0.28221227532664

          :  Hamiltonian                  GFN2-xTB          :
         :: total energy             -41.993755939066 Eh    ::
         :: gradient norm              0.005854832929 Eh/a0 ::
         :: HOMO-LUMO gap              0.852446413618 eV    ::
         :: SCC energy               -42.512693818568 Eh    ::
         :: -> dispersion             -0.021328620089 Eh    ::
         :: repulsion energy           0.518680734996 Eh    ::

    * Orbital Energies and Occupations

         #    Occupation            Energy/Eh            Energy/eV
      -------------------------------------------------------------
         1        2.0000           -0.9582627             -26.0757
       ...           ...                  ...                  ...
        25        2.0000           -0.6637512             -18.0616
        26        2.0000           -0.6596249             -17.9493
        27        2.0000           -0.6475693             -17.6213
        28        2.0000           -0.6427582             -17.4903
        29        2.0000           -0.6320267             -17.1983
        30        2.0000           -0.6237879             -16.9741
        31        2.0000           -0.6134153             -16.6919
        32        2.0000           -0.6124080             -16.6645
        33        2.0000           -0.6053612             -16.4727
        34        2.0000           -0.5798529             -15.7786
        35        2.0000           -0.5761911             -15.6790
        36        1.9744           -0.5147148             -14.0061
        37        1.7598           -0.4960637             -13.4986 (HOMO)
        38        0.2458           -0.4647368             -12.6461 (LUMO)
        39        0.0199           -0.4438672             -12.0782
        40        0.0001           -0.4014630             -10.9244
        41        0.0000           -0.3796835             -10.3317
        42                         -0.2586189              -7.0374
        43                         -0.2343711              -6.3776
        44                         -0.1903239              -5.1790
        45                         -0.1598036              -4.3485
        46                         -0.1064504              -2.8967
        47                         -0.0827303              -2.2512
        48                         -0.0559273              -1.5219
       ...                                ...                  ...
        67                          0.9847527              26.7965
      -------------------------------------------------------------
                  HL-Gap            0.0313268 Eh            0.8524 eV

     #   Z          covCN         q      C6AA      α(0)
     1   6 C        3.690    -0.044    21.564     6.646
     2   7 N        2.747    -0.123    23.664     7.225
     3   6 C        4.170     0.090    19.005     6.192
     4   7 N        2.916    -0.113    23.452     7.193
     5   6 C        3.290     0.129    23.715     7.817
     6   6 C        3.097    -0.141    31.473     9.194
     7   6 C        1.806     0.333    23.781     7.880
     8   8 O        0.856    -0.077    16.183     5.393
     9   7 N        2.720    -0.023    21.703     6.919
    10   6 C        3.696    -0.084    22.284     6.753
    11   6 C        2.723     0.323    21.509     7.592
    12   8 O        0.858    -0.299    19.770     5.961
    13   7 N        2.731    -0.027    21.776     6.931
    14   6 C        3.712    -0.075    22.064     6.712
    15   1 H        0.924     0.059     2.209     2.324
    16   1 H        0.924     0.080     1.984     2.203
    17   1 H        0.925     0.076     2.020     2.222
    18   1 H        0.926     0.064     2.147     2.292
    19   1 H        0.925     0.110     1.700     2.039
    20   1 H        0.925     0.116     1.649     2.008
    21   1 H        0.923     0.131     1.528     1.933
    22   1 H        0.925     0.096     1.821     2.110
    23   1 H        0.925     0.092     1.856     2.131
    24   1 H        0.925     0.118     1.630     1.996
    25   1 H        0.860     0.189     1.164     1.690

Wiberg/Mayer (AO) data.
largest (>0.10) Wiberg bond orders for each atom

     #   Z sym  total        # sym  WBO       # sym  WBO       # sym  WBO
 ---------------------------------------------------------------------------
     1   6 C    3.956 --     2 N    1.024    17 H    0.969    15 H    0.963
                            16 H    0.963
     2   7 N    3.032 --     1 C    1.024     3 C    0.950     6 C    0.917
     3   6 C    3.847 --     4 N    0.962    18 H    0.959     2 N    0.950
                             6 C    0.900
     4   7 N    3.507 --     5 C    1.372     3 C    0.962    25 H    0.924
     5   6 C    3.837 --     4 N    1.372    13 N    1.155     6 C    1.140
     6   6 C    3.251 --     5 C    1.140     2 N    0.917     3 C    0.900
     7   6 C    3.759 --     8 O    2.114     9 N    1.544
     8   8 O    2.428 --     7 C    2.114     9 N    0.229
     9   7 N    3.571 --     7 C    1.544    10 C    0.909    11 C    0.780
                             8 O    0.229
    10   6 C    3.860 --    19 H    0.973    20 H    0.965    21 H    0.921
                             9 N    0.909
    11   6 C    3.897 --    12 O    1.788    13 N    1.201     9 N    0.780
    12   8 O    2.141 --    11 C    1.788    13 N    0.156
    13   7 N    3.600 --    11 C    1.201     5 C    1.155    14 C    0.946
                            12 O    0.156
    14   6 C    3.915 --    22 H    0.973    23 H    0.970    24 H    0.968
                            13 N    0.946
    15   1 H    0.976 --     1 C    0.963
    16   1 H    0.989 --     1 C    0.963
    17   1 H    0.992 --     1 C    0.969
    18   1 H    0.993 --     3 C    0.959
    19   1 H    0.987 --    10 C    0.973
    20   1 H    0.986 --    10 C    0.965
    21   1 H    0.982 --    10 C    0.921
    22   1 H    0.990 --    14 C    0.973
    23   1 H    0.991 --    14 C    0.970
    24   1 H    0.985 --    14 C    0.968
    25   1 H    0.963 --     4 N    0.924
 ---------------------------------------------------------------------------

molecular dipole:
                 x           y           z       tot (Debye)
 q only:       -0.029      -0.142      -0.071
   full:        0.319      -0.589      -0.168       1.756

           -------------------------------------------------
          | TOTAL ENERGY              -41.993755939066 Eh   |
          | GRADIENT NORM               0.005854832929 Eh/α |
          | HOMO-LUMO GAP               0.852446413618 eV   |
           -------------------------------------------------

 * finished run on 2024/06/05 at 19:58:02.777
