   * xtb version 6.6.1 (8d0f1dd) compiled by 'conda@1efc2f54142f' on 2023-08-01
          program call               : xtb struc.xyz --opt loose --input .xc1 --gfn2

   ID    Z sym.   atoms
    1    6 C      1, 3, 5-7, 10, 11, 14
    2    7 N      2, 4, 9, 13
    3    8 O      8, 12
    4    1 H      15-25
constraining bond 13 22 to    4.0600000 Å, actual value:    2.0980043 Å

          :  Hamiltonian                  GFN2-xTB          :
 * total energy  :   -28.5013067 Eh     change       -0.6650680E-10 Eh
 * total energy  :   -35.4436044 Eh     change       -0.6942298E+01 Eh
 * total energy  :   -39.6144542 Eh     change       -0.4170850E+01 Eh
 * total energy  :   -41.4346539 Eh     change       -0.1820200E+01 Eh
 * total energy  :   -41.8285465 Eh     change       -0.3938926E+00 Eh
 * total energy  :   -41.8644971 Eh     change       -0.3595062E-01 Eh
 * total energy  :   -41.8805461 Eh     change       -0.1604897E-01 Eh
 * total energy  :   -41.8930332 Eh     change       -0.1248708E-01 Eh
 * total energy  :   -41.9219746 Eh     change       -0.2894143E-01 Eh
 * total energy  :   -41.9367243 Eh     change       -0.1474972E-01 Eh
 * total energy  :   -42.1018657 Eh     change       -0.7025867E-03 Eh
 * total energy  :   -42.1023966 Eh     change       -0.5309442E-03 Eh
 * total energy  :   -42.1027530 Eh     change       -0.3564298E-03 Eh
 * total energy  :   -42.1030698 Eh     change       -0.3167918E-03 Eh
 * total energy  :   -42.1032129 Eh     change       -0.1430442E-03 Eh
 * total energy  :   -42.1033710 Eh     change       -0.1581347E-03 Eh
 * total energy  :   -42.1034747 Eh     change       -0.1036671E-03 Eh
 * total energy  :   -42.1035472 Eh     change       -0.7253570E-04 Eh
 * total energy  :   -42.1035727 Eh     change       -0.2551317E-04 Eh
   *** GEOMETRY OPTIMIZATION CONVERGED AFTER 35 ITERATIONS ***

 final structure:
================
25
 xtb: 6.6.1 (8d0f1dd)
C            3.22982591964435        1.18524637994714        0.05117232303690
N            2.27454785968457        0.11199314268829       -0.02728822301974
C            2.54376220210537       -1.18657665066567       -0.08651903318036
N            1.39697978205755       -1.89568904177321       -0.14909504346472
C            0.35273308080927       -1.00525246338005       -0.12487346297825
C            0.90937247206339        0.26528819456442       -0.04934028363810
C            0.10062891160035        1.46567196329875       -0.02558910796200
O            0.51829760888868        2.60075080241556        0.00184945753175
N           -1.26282893420509        1.15518748388032       -0.04536455408123
C           -2.20037526163191        2.27485147172368        0.00324355219467
C           -1.85817585446402       -0.07546357146036       -0.08419308161263
O           -3.04150260770085       -0.24876560351607       -0.06980352562389
N           -0.98029821577651       -1.23929865482592       -0.15863067818336
C           -1.55545338268158       -2.44760284463152       -0.24607543678485
H            3.71688215105336        1.18820660130239        1.02746654049007
H            3.99026055897657        1.07075186265790       -0.71993702947830
H            2.70569150604641        2.13120950244765       -0.08366673985373
H            3.52539091170775       -1.61925233803343       -0.08492604182917
H           -1.62358473179900        3.19642436014431        0.01171669760531
H           -2.85422262840048        2.24560766128577       -0.86712639275948
H           -2.81264645493873        2.20418657142401        0.90111179147178
H           -1.66330208686325       -4.83514405009616        1.59770185696503
H           -0.95651926192464       -3.33679087840864       -0.29106410699972
H           -2.62882706578449       -2.48476773696476       -0.25303425012559
H            1.33379503563279       -2.90253362242432       -0.19656360982036

          :  Hamiltonian                  GFN2-xTB          :
         :: total energy             -42.103572725798 Eh    ::
         :: gradient norm              0.003580311044 Eh/a0 ::
         :: HOMO-LUMO gap              0.290922059232 eV    ::
         :: SCC energy               -42.626838919208 Eh    ::
         :: -> dispersion             -0.022711137367 Eh    ::
         :: repulsion energy           0.523169297485 Eh    ::

    * Orbital Energies and Occupations

         #    Occupation            Energy/Eh            Energy/eV
      -------------------------------------------------------------
         1        2.0000           -0.9211927             -25.0669
       ...           ...                  ...                  ...
        25        2.0000           -0.6724796             -18.2991
        26        2.0000           -0.6722095             -18.2918
        27        2.0000           -0.6631045             -18.0440
        28        1.9999           -0.6390678             -17.3899
        29        1.9998           -0.6352953             -17.2873
        30        1.9998           -0.6314264             -17.1820
        31        1.9996           -0.6229929             -16.9525
        32        1.9985           -0.6018580             -16.3774
        33        1.9975           -0.5936595             -16.1543
        34        1.9966           -0.5889062             -16.0250
        35        1.9874           -0.5680770             -15.4582
        36        1.9860           -0.5663575             -15.4114
        37        1.1331           -0.4921989             -13.3934 (HOMO)
        38        0.7991           -0.4815077             -13.1025 (LUMO)
        39        0.0918           -0.4399051             -11.9704
        40        0.0094           -0.4031268             -10.9696
        41        0.0018           -0.3773550             -10.2684
        42        0.0000           -0.2925303              -7.9602
        43                         -0.2169148              -5.9026
        44                         -0.2044573              -5.5636
        45                         -0.1546332              -4.2078
        46                         -0.1384950              -3.7686
        47                         -0.0712792              -1.9396
        48                         -0.0433886              -1.1807
       ...                                ...                  ...
        67                          0.5533160              15.0565
      -------------------------------------------------------------
                  HL-Gap            0.0106912 Eh            0.2909 eV

     #   Z          covCN         q      C6AA      α(0)
     1   6 C        3.692    -0.097    22.547     6.795
     2   7 N        2.832     0.087    19.731     6.597
     3   6 C        3.054     0.055    26.713     8.476
     4   7 N        2.789    -0.055    22.309     7.015
     5   6 C        3.041     0.094    25.879     8.344
     6   6 C        3.114    -0.016    28.237     8.705
     7   6 C        2.763     0.268    22.482     7.765
     8   8 O        0.858    -0.362    20.943     6.136
     9   7 N        2.744    -0.077    22.741     7.083
    10   6 C        3.713    -0.065    21.881     6.684
    11   6 C        2.733     0.311    21.713     7.629
    12   8 O        0.859    -0.333    20.393     6.055
    13   7 N        2.735     0.010    21.081     6.819
    14   6 C        2.798    -0.053    29.303     8.868
    15   1 H        0.924     0.112     1.681     2.028
    16   1 H        0.925     0.108     1.714     2.047
    17   1 H        0.925     0.140     1.463     1.891
    18   1 H        0.926     0.130     1.538     1.939
    19   1 H        0.925     0.117     1.637     2.001
    20   1 H        0.925     0.100     1.785     2.089
    21   1 H        0.925     0.100     1.787     2.090
    22   1 H        0.000    -0.035     9.321     5.582
    23   1 H        0.926     0.094     1.842     2.122
    24   1 H        0.926     0.137     1.480     1.903
    25   1 H        0.860     0.232     0.958     1.533

Wiberg/Mayer (AO) data.
largest (>0.10) Wiberg bond orders for each atom

     #   Z sym  total        # sym  WBO       # sym  WBO       # sym  WBO
 ---------------------------------------------------------------------------
     1   6 C    3.911 --     2 N    0.984    16 H    0.962    17 H    0.959
                            15 H    0.954
     2   7 N    3.677 --     3 C    1.388     6 C    1.166     1 C    0.984
     3   6 C    3.847 --     2 N    1.388     4 N    1.290    18 H    0.951
     4   7 N    3.558 --     3 C    1.290     5 C    1.168    25 H    0.917
     5   6 C    3.888 --     6 C    1.342     4 N    1.168    13 N    1.163
     6   6 C    3.859 --     5 C    1.342     2 N    1.166     7 C    1.072
     7   6 C    3.918 --     8 O    1.678     9 N    1.083     6 C    1.072
     8   8 O    1.991 --     7 C    1.678     9 N    0.138
     9   7 N    3.569 --    11 C    1.169     7 C    1.083    10 C    0.962
                            12 O    0.151     8 O    0.138
    10   6 C    3.909 --    19 H    0.967    20 H    0.966    21 H    0.965
                             9 N    0.962
    11   6 C    3.925 --    12 O    1.732     9 N    1.169    13 N    0.930
    12   8 O    2.060 --    11 C    1.732     9 N    0.151
    13   7 N    3.624 --    14 C    1.307     5 C    1.163    11 C    0.930
    14   6 C    3.355 --    13 N    1.307    23 H    0.965    24 H    0.958
    15   1 H    0.984 --     1 C    0.954
    16   1 H    0.985 --     1 C    0.962
    17   1 H    0.980 --     1 C    0.959
    18   1 H    0.982 --     3 C    0.951
    19   1 H    0.985 --    10 C    0.967
    20   1 H    0.986 --    10 C    0.966
    21   1 H    0.986 --    10 C    0.965
    22   1 H    0.027
    23   1 H    0.990 --    14 C    0.965
    24   1 H    0.980 --    14 C    0.958
    25   1 H    0.946 --     4 N    0.917
 ---------------------------------------------------------------------------

molecular dipole:
                 x           y           z       tot (Debye)
 q only:        2.638      -1.469      -0.293
   full:        2.900      -2.061      -0.297       9.074

           -------------------------------------------------
          | TOTAL ENERGY              -42.103572725798 Eh   |
          | GRADIENT NORM               0.003580311044 Eh/α |
          | HOMO-LUMO GAP               0.290922059232 eV   |
           -------------------------------------------------

 * finished run on 2024/06/05 at 19:59:20.274
