   * xtb version 6.6.1 (8d0f1dd) compiled by 'conda@1efc2f54142f' on 2023-08-01
          program call               : xtb xtbopt.xyz --opt crude --input .xc2 --gfn2

   ID    Z sym.   atoms
    1    6 C      1, 3, 5-7, 10, 11, 14
    2    7 N      2, 4, 9, 13
    3    8 O      8, 12
    4    1 H      15-25

          :  Hamiltonian                  GFN2-xTB          :
 * total energy  :   -41.9892610 Eh     change       -0.1364242E-11 Eh
   *** GEOMETRY OPTIMIZATION CONVERGED AFTER 1 ITERATIONS ***

 final structure:
================
25
 xtb: 6.6.1 (8d0f1dd)
C            4.42612249974062        1.34192464042654        0.07982739544055
N            3.16211261875868        0.63111129051502        0.08510937983064
C            3.18687686691502       -0.71774085692958       -0.08754846372278
N            2.09931125886227       -1.41204115976912       -0.12755926869812
C            1.11106684644167       -2.01549586586133        0.12459247346262
C            2.02718566602219        1.26422368211209        0.27172337789320
C            1.19050789449314        2.18096074260497        0.44707472723120
O            0.26720512979192        2.89476648738152        0.60234947753155
N           -2.27381020671319        2.73886999041210       -0.86882093818956
C           -3.40007597099756        2.63036554196329       -0.36871060274966
C           -2.38573341940885       -1.39149262221013        0.18884622304229
O           -2.37104514714672       -0.23450993874801        0.27507528592942
N           -2.15961862738847       -2.54981727967383        0.04335290597834
C           -2.66811540969845       -3.87095003148671        0.07875486485667
H            5.01094166855995        1.08089364679239        0.96497312855727
H            5.00181842073717        1.08119738725661       -0.80934640769553
H            4.24062944646619        2.41386391331739        0.08532736072688
H            4.13325651452312       -1.20693357921514       -0.25190762483535
H           -1.44290878267767        2.90209714612389       -0.30330523081235
H           -4.24873775056586        2.45800057459271       -1.02297518297766
H           -3.63148920432454        2.69590372081207        0.70004440881015
H           -2.13753221524749       -4.43179168355160        0.85079922655554
H           -2.48552981354820       -4.34137162024713       -0.88986768787918
H           -3.73846773222765       -3.88871726671690        0.29225316155678
H            0.24646096277691       -2.43507831829804       -0.32889037196625

          :  Hamiltonian                  GFN2-xTB          :
         :: total energy             -41.989260952797 Eh    ::
         :: gradient norm              0.003312031459 Eh/a0 ::
         :: HOMO-LUMO gap              1.019178631302 eV    ::
         :: SCC energy               -42.681370236116 Eh    ::
         :: -> dispersion             -0.015538126714 Eh    ::
         :: repulsion energy           0.692062959115 Eh    ::

    * Orbital Energies and Occupations

         #    Occupation            Energy/Eh            Energy/eV
      -------------------------------------------------------------
         1        2.0000           -0.8578467             -23.3432
       ...           ...                  ...                  ...
        25        2.0000           -0.6485041             -17.6467
        26        1.9999           -0.6409628             -17.4415
        27        1.9998           -0.6269672             -17.0606
        28        1.9998           -0.6251573             -17.0114
        29        1.9998           -0.6233303             -16.9617
        30        1.9995           -0.6088278             -16.5670
        31        1.9993           -0.6037707             -16.4294
        32        1.9991           -0.6007579             -16.3475
        33        1.9717           -0.5457755             -14.8513
        34        1.9526           -0.5374535             -14.6249
        35        1.9101           -0.5269617             -14.3394
        36        1.8557           -0.5190207             -14.1233
        37        1.6561           -0.5034611             -13.6999 (HOMO)
        38        0.6227           -0.4660070             -12.6807 (LUMO)
        39        0.0308           -0.4127310             -11.2310
        40        0.0019           -0.3683261             -10.0227
        41        0.0012           -0.3616987              -9.8423
        42        0.0001           -0.3162068              -8.6044
        43        0.0000           -0.2929139              -7.9706
        44        0.0000           -0.2885175              -7.8510
        45        0.0000           -0.2478981              -6.7457
        46                         -0.1482976              -4.0354
        47                         -0.0800022              -2.1770
        48                         -0.0686343              -1.8676
       ...                                ...                  ...
        67                          1.2283927              33.4263
      -------------------------------------------------------------
                  HL-Gap            0.0374541 Eh            1.0192 eV

     #   Z          covCN         q      C6AA      α(0)
     1   6 C        3.710    -0.086    22.293     6.747
     2   7 N        2.737     0.118    19.225     6.512
     3   6 C        2.810     0.031    27.300     8.560
     4   7 N        1.830     0.087    20.381     6.690
     5   6 C        1.845    -0.004    31.260     9.032
     6   6 C        1.948    -0.088    33.489     9.345
     7   6 C        1.837     0.223    25.922     8.225
     8   8 O        0.856    -0.251    18.928     5.833
     9   7 N        1.770    -0.172    25.484     7.475
    10   6 C        2.759     0.058    26.670     8.457
    11   6 C        1.770     0.311    24.234     7.959
    12   8 O        0.856    -0.280    19.425     5.909
    13   7 N        1.820    -0.172    25.519     7.485
    14   6 C        3.686    -0.030    21.318     6.610
    15   1 H        0.924     0.099     1.790     2.092
    16   1 H        0.924     0.097     1.814     2.106
    17   1 H        0.925     0.101     1.773     2.082
    18   1 H        0.926     0.111     1.687     2.031
    19   1 H        0.860     0.225     0.987     1.556
    20   1 H        0.925     0.111     1.688     2.032
    21   1 H        0.924     0.095     1.836     2.119
    22   1 H        0.924     0.087     1.908     2.160
    23   1 H        0.924     0.087     1.905     2.158
    24   1 H        0.924     0.079     1.985     2.204
    25   1 H        0.927     0.162     1.314     1.793

Wiberg/Mayer (AO) data.
largest (>0.10) Wiberg bond orders for each atom

     #   Z sym  total        # sym  WBO       # sym  WBO       # sym  WBO
 ---------------------------------------------------------------------------
     1   6 C    3.929 --    17 H    0.976     2 N    0.971    16 H    0.964
                            15 H    0.958
     2   7 N    3.562 --     6 C    1.301     3 C    1.197     1 C    0.971
     3   6 C    3.827 --     4 N    1.355     2 N    1.197    18 H    0.929
                             5 C    0.167
     4   7 N    3.652 --     5 C    2.244     3 C    1.355
     5   6 C    3.481 --     4 N    2.244    25 H    0.919     3 C    0.167
     6   6 C    3.559 --     7 C    1.907     2 N    1.301     8 O    0.196
     7   6 C    3.806 --     6 C    1.907     8 O    1.813
     8   8 O    2.135 --     7 C    1.813     6 C    0.196
     9   7 N    2.968 --    10 C    2.062    19 H    0.878
    10   6 C    3.898 --     9 N    2.062    20 H    0.930    21 H    0.903
    11   6 C    3.938 --    13 N    1.988    12 O    1.879
    12   8 O    2.289 --    11 C    1.879    13 N    0.365
    13   7 N    3.373 --    11 C    1.988    14 C    1.009    12 O    0.365
    14   6 C    3.933 --    13 N    1.009    24 H    0.961    23 H    0.961
                            22 H    0.960
    15   1 H    0.978 --     1 C    0.958
    16   1 H    0.982 --     1 C    0.964
    17   1 H    0.988 --     1 C    0.976
    18   1 H    0.985 --     3 C    0.929
    19   1 H    0.927 --     9 N    0.878
    20   1 H    0.951 --    10 C    0.930
    21   1 H    0.915 --    10 C    0.903
    22   1 H    0.983 --    14 C    0.960
    23   1 H    0.984 --    14 C    0.961
    24   1 H    0.986 --    14 C    0.961
    25   1 H    0.960 --     5 C    0.919
 ---------------------------------------------------------------------------

molecular dipole:
                 x           y           z       tot (Debye)
 q only:        1.747      -1.175      -0.261
   full:        1.614      -1.295      -0.056       5.260

           -------------------------------------------------
          | TOTAL ENERGY              -41.989260952797 Eh   |
          | GRADIENT NORM               0.003312031459 Eh/α |
          | HOMO-LUMO GAP               1.019178631302 eV   |
           -------------------------------------------------

 * finished run on 2024/06/05 at 20:00:11.823
