   * xtb version 6.6.1 (8d0f1dd) compiled by 'conda@1efc2f54142f' on 2023-08-01
          program call               : xtb xtbopt.xyz --opt crude --input .xc2 --gfn2

   ID    Z sym.   atoms
    1    7 N      1, 17
    2    6 C      2-6, 8, 9, 11-16, 18-23, 25, 26, 28-33
    3    8 O      7, 10, 24, 27
    4    1 H      34-72

          :  Hamiltonian                  GFN2-xTB          :
 * total energy  :   -99.2953862 Eh     change       -0.6082246E-11 Eh
   *** GEOMETRY OPTIMIZATION CONVERGED AFTER 1 ITERATIONS ***

 final structure:
================
72
 xtb: 6.6.1 (8d0f1dd)
N           -1.88258251464767        2.95893870111635        2.22373309539137
C           -1.83076768646632        2.21136219329459        1.22601034671411
C           -2.97431468801133        1.98326683593461        0.27510630526682
C           -3.39985031496663        0.52621740574252        0.33728892179009
C           -4.30891586645575        0.03012832366296       -0.59837358362276
C           -4.73429161383611       -1.28878665964705       -0.56611387784488
O           -5.61034233664930       -1.84528423993047       -1.42268334856767
C           -6.23266607988160       -1.04308888245620       -2.39928114733541
C           -4.22631422378765       -2.16414297984501        0.43636133991945
O           -4.68204272282865       -3.42662742679197        0.38576829675439
C           -4.26312723494494       -4.35207221712352        1.36294227481027
C           -3.32992882144161       -1.65939877975716        1.36780325566907
C           -2.92799835847687       -0.33313672857944        1.32024885832660
C           -2.42747472757058        2.32827103273054       -1.13696607683646
C           -1.53983571471432        1.24810334089856       -1.78105415636782
C           -0.21271529642486        1.08956799966277       -1.13464608678451
N            0.33839499117505       -0.06376683291826       -0.75758623531525
C            1.72840342330682       -0.00843610491792       -0.31173775539193
C            2.68449987852625       -0.13042546848885       -1.50848693614343
C            4.10948999686713       -0.01588454677028       -1.04417729365602
C            4.85716498533218        1.12850208909481       -1.28591336913216
C            6.15930274259474        1.23589209280108       -0.82416285566898
C            6.74436917528719        0.20019829096898       -0.10561147951848
O            7.98960720077865        0.19824798614423        0.39316286274229
C            8.80704033316661        1.33437743566312        0.22644312275658
C            5.98414430987030       -0.98214593635358        0.14458659940721
O            6.61592468592744       -1.93429269019128        0.84549313394300
C            5.96325015475551       -3.15976883222350        1.09540538998236
C            4.68425400035934       -1.06471150731089       -0.33372894097832
C           -0.22421424974246       -1.26028690912150       -0.77925167051921
C           -4.21792019751877        2.86837186594224        0.58971718395068
C           -4.82442242214500        2.52014751997240        1.94644905534225
C           -3.92449770954577        4.36411260402980        0.52327362611071
H           -4.69585655978211        0.68803809557179       -1.35911639948137
H           -6.79382636860159       -0.22163702370163       -1.94407251033370
H           -6.92133903596103       -1.70297641521340       -2.92312692686843
H           -5.50614561727068       -0.64105472724533       -3.11263257879986
H           -4.55734560014441       -4.03328306961743        2.36710849138072
H           -4.76797357375642       -5.28427616887032        1.11740893627359
H           -3.18029051524434       -4.50581950173026        1.33057288306803
H           -2.94162393504361       -2.29373119416536        2.14747730550424
H           -2.25086461134292        0.02660542159943        2.07866982176580
H           -3.27189684373826        2.50511242806148       -1.80294905606016
H           -1.86119615305563        3.25846720882929       -1.07157124212335
H           -2.07942682521472        0.30407178380347       -1.81155626594464
H           -1.37031637613072        1.56545861863384       -2.81791230171425
H           -0.92129435888702        1.67223797521114        0.90770286710566
H            0.41783989550455        1.96268021552954       -1.07960610066438
H            1.92087491385053       -0.83918646497193        0.37993006304738
H            1.91067092438535        0.93382102019324        0.20880190981493
H            2.46398252549914        0.65146155284858       -2.23776965166624
H            2.52667829785088       -1.10050208253485       -1.98460042479646
H            4.42886096440606        1.94626822013396       -1.84516035474904
H            6.71633646711933        2.13518195559755       -1.03058870254502
H            8.36105937725329        2.21800628429111        0.69260155876952
H            9.00077543582116        1.53715520296095       -0.83097223129996
H            9.74429662875009        1.09570161010766        0.72555211258575
H            6.65712977787441       -3.74326121029733        1.69715454439010
H            5.02908442649323       -3.01776019234728        1.64711201377582
H            5.75309573258029       -3.69122027294610        0.16270335967918
H            4.08872355103966       -1.94510185978850       -0.13236588406417
H            0.33563096382472       -2.10194278083024       -0.42346264933594
H           -1.22779114645270       -1.40220550428874       -1.12625279507075
H            2.54467068328694       -2.65792786729387        1.02936366925523
H           -4.96363182800725        2.63661943680828       -0.17961432342631
H           -4.12376076935572        2.75960808197983        2.74051941400452
H           -5.07838283892046        1.46439788881923        2.00575248088375
H           -5.73083304787083        3.09993551487557        2.10030089354304
H           -3.16373734493057        4.63178858776534        1.25034787379242
H           -3.59820152188997        4.67095029673882       -0.46672870855428
H           -4.83015022024296        4.91588226554124        0.76180756052404
H           -1.04893297460304        3.07312721724285        2.79041733573693

          :  Hamiltonian                  GFN2-xTB          :
         :: total energy             -99.295386197595 Eh    ::
         :: gradient norm              0.002687003896 Eh/a0 ::
         :: HOMO-LUMO gap              0.202504438159 eV    ::
         :: SCC energy              -100.676341962560 Eh    ::
         :: -> dispersion             -0.078044657386 Eh    ::
         :: repulsion energy           1.379594471512 Eh    ::

    * Orbital Energies and Occupations

         #    Occupation            Energy/Eh            Energy/eV
      -------------------------------------------------------------
         1        2.0000           -0.8201064             -22.3162
       ...           ...                  ...                  ...
        78        1.9965           -0.5353899             -14.5687
        79        1.9962           -0.5341960             -14.5362
        80        1.9951           -0.5300863             -14.4244
        81        1.9935           -0.5257376             -14.3060
        82        1.9919           -0.5222042             -14.2099
        83        1.9911           -0.5207237             -14.1696
        84        1.9888           -0.5170555             -14.0698
        85        1.9660           -0.4992562             -13.5855
        86        1.9554           -0.4948750             -13.4662
        87        1.8985           -0.4813797             -13.0990
        88        1.7782           -0.4679722             -12.7342
        89        1.7159           -0.4634868             -12.6121
        90        1.4667           -0.4510322             -12.2732 (HOMO)
        91        1.2644           -0.4435903             -12.0707 (LUMO)
        92        0.0099           -0.3510051              -9.5513
        93        0.0070           -0.3454775              -9.4009
        94        0.0020           -0.3252800              -8.8513
        95        0.0016           -0.3224251              -8.7736
        96        0.0013           -0.3191558              -8.6847
        97        0.0012           -0.3174707              -8.6388
        98        0.0000           -0.2000624              -5.4440
        99        0.0000           -0.1951858              -5.3113
       100                         -0.1217979              -3.3143
       101                         -0.0737971              -2.0081
       ...                                ...                  ...
       171                          0.5676890              15.4476
      -------------------------------------------------------------
                  HL-Gap            0.0074419 Eh            0.2025 eV

     #   Z          covCN         q      C6AA      α(0)
     1   7 N        1.774    -0.256    27.478     7.762
     2   6 C        2.827     0.103    25.717     8.310
     3   6 C        3.907     0.008    20.389     6.418
     4   6 C        2.974     0.009    27.812     8.651
     5   6 C        2.919    -0.077    29.922     8.970
     6   6 C        2.861     0.133    25.093     8.211
     7   8 O        1.706    -0.220    17.651     5.672
     8   6 C        3.644     0.025    20.493     6.507
     9   6 C        2.864     0.134    25.072     8.208
    10   8 O        1.706    -0.216    17.583     5.661
    11   6 C        3.645     0.023    20.522     6.511
    12   6 C        2.913    -0.068    29.695     8.936
    13   6 C        2.921    -0.045    29.121     8.849
    14   6 C        3.811    -0.064    21.721     6.634
    15   6 C        3.801    -0.065    21.749     6.640
    16   6 C        2.861    -0.033    28.814     8.799
    17   7 N        2.730     0.098    19.558     6.568
    18   6 C        3.781    -0.026    21.064     6.538
    19   6 C        3.808    -0.067    21.784     6.644
    20   6 C        2.969     0.010    27.791     8.647
    21   6 C        2.921    -0.043    29.068     8.841
    22   6 C        2.913    -0.065    29.611     8.923
    23   6 C        2.863     0.138    24.995     8.195
    24   8 O        1.706    -0.208    17.463     5.642
    25   6 C        3.645     0.022    20.548     6.515
    26   6 C        2.862     0.140    24.935     8.185
    27   8 O        1.706    -0.207    17.450     5.640
    28   6 C        3.645     0.021    20.548     6.515
    29   6 C        2.919    -0.074    29.848     8.959
    30   6 C        2.811    -0.088    30.182     9.001
    31   6 C        3.853    -0.007    20.674     6.467
    32   6 C        3.756    -0.119    22.830     6.813
    33   6 C        3.755    -0.120    22.855     6.817
    34   1 H        0.926     0.057     2.237     2.339
    35   1 H        0.924     0.058     2.226     2.333
    36   1 H        0.925     0.085     1.923     2.169
    37   1 H        0.924     0.053     2.289     2.366
    38   1 H        0.924     0.060     2.196     2.317
    39   1 H        0.925     0.086     1.920     2.167
    40   1 H        0.924     0.057     2.237     2.339
    41   1 H        0.926     0.061     2.187     2.313
    42   1 H        0.926     0.046     2.370     2.408
    43   1 H        0.925     0.060     2.203     2.321
    44   1 H        0.924     0.054     2.269     2.355
    45   1 H        0.925     0.058     2.218     2.329
    46   1 H        0.924     0.072     2.067     2.248
    47   1 H        0.923     0.019     2.746     2.592
    48   1 H        0.926     0.059     2.216     2.328
    49   1 H        0.923     0.100     1.788     2.091
    50   1 H        0.924     0.066     2.130     2.282
    51   1 H        0.924     0.055     2.257     2.349
    52   1 H        0.924     0.066     2.128     2.281
    53   1 H        0.926     0.054     2.272     2.357
    54   1 H        0.926     0.064     2.153     2.295
    55   1 H        0.924     0.060     2.198     2.318
    56   1 H        0.924     0.062     2.177     2.308
    57   1 H        0.925     0.087     1.904     2.158
    58   1 H        0.925     0.086     1.923     2.168
    59   1 H        0.924     0.069     2.097     2.265
    60   1 H        0.924     0.062     2.174     2.306
    61   1 H        0.925     0.080     1.977     2.199
    62   1 H        0.926     0.083     1.948     2.183
    63   1 H        0.926     0.064     2.148     2.292
    64   1 H        0.000    -0.268    44.075    12.139
    65   1 H        0.924     0.042     2.429     2.437
    66   1 H        0.925     0.071     2.075     2.253
    67   1 H        0.925     0.037     2.490     2.467
    68   1 H        0.925     0.055     2.257     2.349
    69   1 H        0.925     0.065     2.139     2.287
    70   1 H        0.925     0.039     2.456     2.451
    71   1 H        0.925     0.058     2.225     2.333
    72   1 H        0.860     0.164     1.309     1.792

Wiberg/Mayer (AO) data.
largest (>0.10) Wiberg bond orders for each atom

     #   Z sym  total        # sym  WBO       # sym  WBO       # sym  WBO
 ---------------------------------------------------------------------------
     1   7 N    3.021 --     2 C    1.960    72 H    0.937
     2   6 C    3.929 --     1 N    1.960     3 C    0.991    47 H    0.905
     3   6 C    3.965 --     2 C    0.991     4 C    0.973    14 C    0.952
                            31 C    0.940
     4   6 C    3.927 --    13 C    1.399     5 C    1.372     3 C    0.973
     5   6 C    3.951 --     6 C    1.392     4 C    1.372    34 H    0.957
     6   6 C    3.885 --     5 C    1.392     9 C    1.208     7 O    1.111
     7   8 O    2.251 --     6 C    1.111     8 C    0.976
     8   6 C    3.926 --    36 H    0.976     7 O    0.976    35 H    0.972
                            37 H    0.972
     9   6 C    3.880 --    12 C    1.378     6 C    1.208    10 O    1.118
    10   8 O    2.252 --     9 C    1.118    11 C    0.974
    11   6 C    3.923 --    39 H    0.976    10 O    0.974    40 H    0.971
                            38 H    0.971
    12   6 C    3.950 --    13 C    1.417     9 C    1.378    41 H    0.962
    13   6 C    3.935 --    12 C    1.417     4 C    1.399    42 H    0.961
    14   6 C    3.968 --    15 C    0.982    44 H    0.972    43 H    0.968
                             3 C    0.952
    15   6 C    3.982 --    16 C    1.051    14 C    0.982    45 H    0.960
                            46 H    0.936
    16   6 C    3.632 --    17 N    1.335    15 C    1.051    48 H    0.962
                            30 C    0.180
    17   7 N    3.748 --    30 C    1.389    16 C    1.335    18 C    0.962
    18   6 C    3.922 --    19 C    0.976    50 H    0.968    17 N    0.962
                            49 H    0.940
    19   6 C    3.985 --    20 C    1.008    18 C    0.976    51 H    0.972
                            52 H    0.965
    20   6 C    3.920 --    21 C    1.390    29 C    1.388    19 C    1.008
    21   6 C    3.919 --    22 C    1.422    20 C    1.390    53 H    0.966
    22   6 C    3.942 --    21 C    1.422    23 C    1.371    54 H    0.962
    23   6 C    3.863 --    22 C    1.371    26 C    1.197    24 O    1.126
    24   8 O    2.250 --    23 C    1.126    25 C    0.973
    25   6 C    3.921 --    57 H    0.976    24 O    0.973    55 H    0.970
                            56 H    0.970
    26   6 C    3.871 --    29 C    1.378    23 C    1.197    27 O    1.128
    27   8 O    2.253 --    26 C    1.128    28 C    0.972
    28   6 C    3.914 --    58 H    0.976    27 O    0.972    60 H    0.969
                            59 H    0.965
    29   6 C    3.917 --    20 C    1.388    26 C    1.378    61 H    0.936
    30   6 C    3.576 --    17 N    1.389    62 H    0.970    63 H    0.967
                            16 C    0.180
    31   6 C    3.962 --    33 C    1.008    32 C    1.008    65 H    0.955
                             3 C    0.940
    32   6 C    3.969 --    31 C    1.008    67 H    0.980    68 H    0.979
                            66 H    0.970
    33   6 C    3.972 --    31 C    1.008    70 H    0.981    71 H    0.978
                            69 H    0.972
    34   1 H    0.995 --     5 C    0.957
    35   1 H    0.990 --     8 C    0.972
    36   1 H    0.992 --     8 C    0.976
    37   1 H    0.991 --     8 C    0.972
    38   1 H    0.989 --    11 C    0.971
    39   1 H    0.992 --    11 C    0.976
    40   1 H    0.989 --    11 C    0.971
    41   1 H    0.994 --    12 C    0.962
    42   1 H    0.997 --    13 C    0.961
    43   1 H    0.994 --    14 C    0.968
    44   1 H    0.996 --    14 C    0.972
    45   1 H    0.996 --    15 C    0.960
    46   1 H    0.972 --    15 C    0.936
    47   1 H    0.973 --     2 C    0.905
    48   1 H    0.996 --    16 C    0.962
    49   1 H    0.989 --    18 C    0.940
    50   1 H    0.995 --    18 C    0.968
    51   1 H    0.995 --    19 C    0.972
    52   1 H    0.992 --    19 C    0.965
    53   1 H    0.995 --    21 C    0.966
    54   1 H    0.993 --    22 C    0.962
    55   1 H    0.988 --    25 C    0.970
    56   1 H    0.987 --    25 C    0.970
    57   1 H    0.991 --    25 C    0.976
    58   1 H    0.991 --    28 C    0.976
    59   1 H    0.986 --    28 C    0.965
    60   1 H    0.986 --    28 C    0.969
    61   1 H    0.991 --    29 C    0.936
    62   1 H    0.993 --    30 C    0.970
    63   1 H    0.995 --    30 C    0.967
    64   1 H    0.062
    65   1 H    0.987 --    31 C    0.955
    66   1 H    0.987 --    32 C    0.970
    67   1 H    0.995 --    32 C    0.980
    68   1 H    0.992 --    32 C    0.979
    69   1 H    0.989 --    33 C    0.972
    70   1 H    0.995 --    33 C    0.981
    71   1 H    0.991 --    33 C    0.978
    72   1 H    0.964 --     1 N    0.937
 ---------------------------------------------------------------------------

molecular dipole:
                 x           y           z       tot (Debye)
 q only:        0.188       1.022      -0.959
   full:        0.461       0.953      -1.101       3.881

           -------------------------------------------------
          | TOTAL ENERGY              -99.295386197595 Eh   |
          | GRADIENT NORM               0.002687003896 Eh/α |
          | HOMO-LUMO GAP               0.202504438159 eV   |
           -------------------------------------------------

 * finished run on 2024/04/06 at 11:13:30.671
