   * xtb version 6.6.1 (8d0f1dd) compiled by 'conda@1efc2f54142f' on 2023-08-01
          program call               : xtb struc.xyz --opt loose --input .xc1 --gfn2

   ID    Z sym.   atoms
    1    7 N      1, 17
    2    6 C      2-6, 8, 9, 11-16, 18-23, 25, 26, 28-33
    3    8 O      7, 10, 24, 27
    4    1 H      34-72
constraining bond 7 12 to    5.7600000 Å, actual value:    3.6056054 Å

          :  Hamiltonian                  GFN2-xTB          :
 * total energy  :   -98.5753912 Eh     change       -0.4035485E-08 Eh
 * total energy  :   -98.7953385 Eh     change       -0.2199473E+00 Eh
 * total energy  :   -98.9259557 Eh     change       -0.1306172E+00 Eh
 * total energy  :   -98.9964110 Eh     change       -0.7045529E-01 Eh
 * total energy  :   -99.0348426 Eh     change       -0.3843161E-01 Eh
 * total energy  :   -99.0604645 Eh     change       -0.2562191E-01 Eh
 * total energy  :   -99.0849791 Eh     change       -0.2451460E-01 Eh
 * total energy  :   -99.1125958 Eh     change       -0.2761665E-01 Eh
 * total energy  :   -99.1360213 Eh     change       -0.2342558E-01 Eh
 * total energy  :   -99.1498269 Eh     change       -0.1380557E-01 Eh
 * total energy  :   -99.2616900 Eh     change       -0.1639392E-02 Eh
 * total energy  :   -99.2634380 Eh     change       -0.1748056E-02 Eh
 * total energy  :   -99.2644671 Eh     change       -0.1029077E-02 Eh
 * total energy  :   -99.2659292 Eh     change       -0.1462074E-02 Eh
 * total energy  :   -99.2665475 Eh     change       -0.6183228E-03 Eh
 * total energy  :   -99.2668998 Eh     change       -0.3522901E-03 Eh
 * total energy  :   -99.2674429 Eh     change       -0.5431129E-03 Eh
 * total energy  :   -99.2675587 Eh     change       -0.1158141E-03 Eh
 * total energy  :   -99.2676054 Eh     change       -0.4671982E-04 Eh
   *** GEOMETRY OPTIMIZATION CONVERGED AFTER 49 ITERATIONS ***

 final structure:
================
72
 xtb: 6.6.1 (8d0f1dd)
N           -1.93910925946300        2.96409479847172        1.98382442944415
C           -1.90071395668301        2.06936369752798        1.11476735820344
C           -3.06482430348821        1.65451909037372        0.26048322448405
C           -3.37192759598589        0.19341439479026        0.52590416288511
C           -4.16699930609542       -0.54011036071851       -0.37846131929214
C           -4.44077926869091       -1.81832714892482       -0.07483017600557
O           -5.04486416975392        0.90293053880057       -2.81957340402984
C           -6.26360331430428        0.78455159561511       -3.34613833591292
C           -4.05838880594442       -2.53005882422488        1.04141132215040
O           -4.42935684415182       -3.81139734689084        1.18894176154680
C           -4.11162970857756       -4.48962117548603        2.38212440541285
C           -3.27415643496617       -1.78909377607213        1.94160698768843
C           -2.95129689214743       -0.46711877205623        1.67430802587890
C           -2.62130618385541        1.87052693613998       -1.20789630825902
C           -1.62195719306937        0.83313289791070       -1.74883537241377
C           -0.27776400806620        0.91576837836809       -1.14971240111405
N            0.44142695348214       -0.11167425935150       -0.73620492325169
C            1.81324073059557        0.06424729632089       -0.31604113854698
C            2.80400866847213       -0.35734931835140       -1.41761545883519
C            4.21742282258414       -0.13196905694569       -0.95688674007662
C            4.83747300425389        1.09236072056752       -1.15251513515827
C            6.13582437261056        1.30876264876637       -0.71863960599520
C            6.84233875332491        0.30287235080508       -0.07356790953052
O            8.10341091819749        0.39562853540022        0.38114985026145
C            8.82284477189592        1.59193962573344        0.18600027087762
C            6.21126717882155       -0.95551694100682        0.13941179092872
O            6.96748510321180       -1.87375954543245        0.76945084780105
C            6.45002310376816       -3.16409497976141        0.99145111752262
C            4.91086991677150       -1.14682782576218       -0.30206849114775
C           -0.07452171020320       -1.46114601719655       -0.75442578899964
C           -4.36479420674709        2.47278166910974        0.52587170039920
C           -4.87748105172276        2.27443212567046        1.94972561802465
C           -4.19982381714286        3.96287088114064        0.24223611420297
H           -4.54442221893936       -0.07053459525310       -1.28985043154907
H           -7.05658854869087        0.95387096901449       -2.59298627246652
H           -6.42134646131615       -0.22303599225694       -3.77176303458616
H           -6.41911058900613        1.51286643603201       -4.16018049515695
H           -4.53318604535462       -3.98246815996648        3.25455183800808
H           -4.56207290693608       -5.47554149389997        2.28670271370153
H           -3.02949675669115       -4.59790993607282        2.50698268521373
H           -2.93053739851699       -2.24426889952930        2.85723199564481
H           -2.36842795398348        0.06931953638982        2.40913732898650
H           -3.50627251157104        1.81784455459298       -1.84365902264584
H           -2.19178107730655        2.86804281646446       -1.30052699647395
H           -2.04870096995044       -0.16360774675306       -1.66699424864792
H           -1.51547601515961        1.05488475128071       -2.81815246140606
H           -0.98294887831179        1.50999070893934        0.84906032327572
H            0.20883141895003        1.88136810398464       -1.14197117348336
H            1.99124913756157       -0.53304732834386        0.58239291038352
H            1.98516596107335        1.11376733982684       -0.06825555147453
H            2.60629173879510        0.23539236041991       -2.31226183974191
H            2.65410763267507       -1.40979362421837       -1.66092936140912
H            4.31457154660070        1.88764963230679       -1.66149113709490
H            6.59469444514771        2.26778720586449       -0.89439256604225
H            8.34615249139547        2.43403089431828        0.69661213390827
H            8.93291548679067        1.82319099189239       -0.87758632679364
H            9.80486195470512        1.41565129260822        0.62067964681433
H            7.24869380231211       -3.71860851727734        1.48023930527064
H            5.57464483612081       -3.13774326962484        1.64828982736415
H            6.18907297418971       -3.65901675959992        0.05100823070107
H            4.42861862053069       -2.10043963747839       -0.15376967066338
H           -0.23721989219230       -1.80573691161930       -1.77742729643124
H           -1.02195294723889       -1.51514737999399       -0.21408048168516
H            0.63806284260635       -2.12535151926354       -0.27241259659114
H           -5.11305205887961        2.07430488946740       -0.16799768535020
H           -4.15814328717863        2.66525258415823        2.66376265304941
H           -5.05691604436790        1.22359117563070        2.16438834454942
H           -5.81381034459181        2.81119123186010        2.07762767138667
H           -3.40208295151894        4.37840899297650        0.85135771411029
H           -3.99244825953135        4.15277295823812       -0.80665801719097
H           -5.12265029390675        4.47808056824649        0.49626346714533
H           -1.08511314857025        3.19099846627541        2.48306624008532

          :  Hamiltonian                  GFN2-xTB          :
         :: total energy             -99.267605447000 Eh    ::
         :: gradient norm              0.002778418647 Eh/a0 ::
         :: HOMO-LUMO gap              0.808061896849 eV    ::
         :: SCC energy              -100.650667328274 Eh    ::
         :: -> dispersion             -0.073640475158 Eh    ::
         :: repulsion energy           1.381772164386 Eh    ::

    * Orbital Energies and Occupations

         #    Occupation            Energy/Eh            Energy/eV
      -------------------------------------------------------------
         1        2.0000           -0.8144932             -22.1635
       ...           ...                  ...                  ...
        78        1.9967           -0.5278860             -14.3645
        79        1.9966           -0.5273039             -14.3487
        80        1.9964           -0.5263978             -14.3240
        81        1.9929           -0.5156319             -14.0311
        82        1.9915           -0.5127370             -13.9523
        83        1.9890           -0.5086352             -13.8407
        84        1.9869           -0.5058704             -13.7654
        85        1.9747           -0.4953637             -13.4795
        86        1.9217           -0.4770195             -12.9804
        87        1.9015           -0.4732307             -12.8773
        88        1.8154           -0.4625502             -12.5866
        89        1.6529           -0.4510647             -12.2741
        90        1.6411           -0.4504207             -12.2566 (HOMO)
        91        0.8241           -0.4207250             -11.4485 (LUMO)
        92        0.3145           -0.3997738             -10.8784
        93        0.0100           -0.3425082              -9.3201
        94        0.0030           -0.3235093              -8.8031
        95        0.0023           -0.3194311              -8.6922
        96        0.0021           -0.3175332              -8.6405
        97        0.0020           -0.3171865              -8.6311
        98        0.0000           -0.1947839              -5.3003
        99        0.0000           -0.1909184              -5.1952
       100                         -0.1429658              -3.8903
       101                         -0.0714123              -1.9432
       ...                                ...                  ...
       171                          0.5815300              15.8242
      -------------------------------------------------------------
                  HL-Gap            0.0296957 Eh            0.8081 eV

     #   Z          covCN         q      C6AA      α(0)
     1   7 N        1.774    -0.264    27.678     7.791
     2   6 C        2.828     0.103    25.704     8.308
     3   6 C        3.907     0.010    20.345     6.411
     4   6 C        2.990     0.010    27.794     8.648
     5   6 C        2.915    -0.037    28.910     8.817
     6   6 C        2.031    -0.049    32.311     9.181
     7   8 O        0.854    -0.474    23.215     6.460
     8   6 C        3.621     0.085    19.600     6.382
     9   6 C        2.858     0.163    24.484     8.110
    10   8 O        1.705    -0.228    17.782     5.693
    11   6 C        3.646     0.028    20.442     6.498
    12   6 C        2.936    -0.070    29.738     8.944
    13   6 C        2.920    -0.047    29.167     8.856
    14   6 C        3.812    -0.081    22.039     6.682
    15   6 C        3.803    -0.074    21.911     6.664
    16   6 C        2.845     0.019    27.566     8.605
    17   7 N        2.729     0.020    20.908     6.791
    18   6 C        3.756    -0.018    20.947     6.526
    19   6 C        3.808    -0.071    21.857     6.655
    20   6 C        2.969     0.001    27.995     8.679
    21   6 C        2.922    -0.047    29.177     8.858
    22   6 C        2.913    -0.066    29.653     8.929
    23   6 C        2.864     0.135    25.046     8.203
    24   8 O        1.706    -0.217    17.606     5.665
    25   6 C        3.645     0.023    20.516     6.510
    26   6 C        2.862     0.134    25.059     8.205
    27   8 O        1.706    -0.220    17.660     5.674
    28   6 C        3.645     0.026    20.476     6.504
    29   6 C        2.919    -0.079    29.973     8.978
    30   6 C        3.701    -0.073    22.053     6.715
    31   6 C        3.854    -0.010    20.710     6.473
    32   6 C        3.756    -0.117    22.802     6.809
    33   6 C        3.755    -0.120    22.859     6.817
    34   1 H        0.924     0.139     1.469     1.895
    35   1 H        0.922     0.048     2.350     2.397
    36   1 H        0.922     0.052     2.297     2.370
    37   1 H        0.923     0.057     2.238     2.340
    38   1 H        0.924     0.056     2.248     2.345
    39   1 H        0.925     0.082     1.961     2.190
    40   1 H        0.924     0.049     2.337     2.391
    41   1 H        0.926     0.058     2.224     2.332
    42   1 H        0.926     0.046     2.372     2.408
    43   1 H        0.924     0.122     1.599     1.977
    44   1 H        0.925     0.055     2.261     2.351
    45   1 H        0.925     0.078     2.005     2.214
    46   1 H        0.924     0.100     1.787     2.091
    47   1 H        0.922     0.004     2.995     2.707
    48   1 H        0.925     0.076     2.024     2.225
    49   1 H        0.924     0.069     2.094     2.263
    50   1 H        0.924     0.069     2.100     2.266
    51   1 H        0.924     0.058     2.220     2.330
    52   1 H        0.924     0.058     2.222     2.331
    53   1 H        0.926     0.048     2.342     2.393
    54   1 H        0.926     0.061     2.185     2.311
    55   1 H        0.924     0.057     2.240     2.340
    56   1 H        0.924     0.058     2.218     2.329
    57   1 H        0.925     0.085     1.932     2.174
    58   1 H        0.925     0.084     1.938     2.177
    59   1 H        0.924     0.050     2.317     2.381
    60   1 H        0.924     0.055     2.264     2.353
    61   1 H        0.926     0.049     2.336     2.390
    62   1 H        0.924     0.084     1.935     2.176
    63   1 H        0.924     0.081     1.967     2.193
    64   1 H        0.925     0.082     1.959     2.189
    65   1 H        0.924     0.060     2.205     2.322
    66   1 H        0.925     0.066     2.133     2.284
    67   1 H        0.925     0.035     2.512     2.478
    68   1 H        0.925     0.054     2.268     2.355
    69   1 H        0.925     0.062     2.172     2.305
    70   1 H        0.925     0.045     2.387     2.416
    71   1 H        0.925     0.057     2.229     2.335
    72   1 H        0.860     0.159     1.344     1.816

Wiberg/Mayer (AO) data.
largest (>0.10) Wiberg bond orders for each atom

     #   Z sym  total        # sym  WBO       # sym  WBO       # sym  WBO
 ---------------------------------------------------------------------------
     1   7 N    3.035 --     2 C    1.953    72 H    0.940
     2   6 C    3.930 --     1 N    1.953     3 C    0.990    47 H    0.903
     3   6 C    3.960 --     2 C    0.990     4 C    0.969    14 C    0.953
                            31 C    0.935
     4   6 C    3.880 --    13 C    1.417     5 C    1.280     3 C    0.969
     5   6 C    3.909 --     6 C    1.578     4 C    1.280    34 H    0.875
     6   6 C    3.164 --     5 C    1.578     9 C    1.335
     7   8 O    1.263 --     8 C    1.155
     8   6 C    3.888 --     7 O    1.155    35 H    0.911    36 H    0.908
                            37 H    0.907
     9   6 C    3.884 --     6 C    1.335    12 C    1.298    10 O    1.106
    10   8 O    2.257 --     9 C    1.106    11 C    0.975
    11   6 C    3.930 --    39 H    0.976    10 O    0.975    38 H    0.974
                            40 H    0.974
    12   6 C    3.905 --    13 C    1.440     9 C    1.298    41 H    0.952
    13   6 C    3.970 --    12 C    1.440     4 C    1.417    42 H    0.956
    14   6 C    3.953 --    15 C    0.974    44 H    0.971     3 C    0.953
                            43 H    0.938
    15   6 C    3.980 --    16 C    1.073    14 C    0.974    45 H    0.958
                            46 H    0.913
    16   6 C    3.650 --    17 N    1.439    15 C    1.073    48 H    0.955
    17   7 N    3.519 --    16 C    1.439    30 C    0.996    18 C    0.986
    18   6 C    3.954 --    17 N    0.986    50 H    0.968    19 C    0.967
                            49 H    0.963
    19   6 C    3.977 --    20 C    1.008    51 H    0.971    52 H    0.971
                            18 C    0.967
    20   6 C    3.938 --    21 C    1.405    29 C    1.382    19 C    1.008
    21   6 C    3.944 --    22 C    1.420    20 C    1.405    53 H    0.968
    22   6 C    3.955 --    21 C    1.420    23 C    1.379    54 H    0.963
    23   6 C    3.889 --    22 C    1.379    26 C    1.214    24 O    1.117
    24   8 O    2.256 --    23 C    1.117    25 C    0.974
    25   6 C    3.925 --    57 H    0.976    24 O    0.974    56 H    0.972
                            55 H    0.972
    26   6 C    3.892 --    29 C    1.392    23 C    1.214    27 O    1.109
    27   8 O    2.255 --    26 C    1.109    28 C    0.977
    28   6 C    3.930 --    27 O    0.977    58 H    0.976    59 H    0.973
                            60 H    0.973
    29   6 C    3.956 --    26 C    1.392    20 C    1.382    61 H    0.962
    30   6 C    3.955 --    17 N    0.996    64 H    0.977    62 H    0.965
                            63 H    0.964
    31   6 C    3.959 --    32 C    1.008    33 C    1.007    65 H    0.953
                             3 C    0.935
    32   6 C    3.972 --    31 C    1.008    67 H    0.980    68 H    0.979
                            66 H    0.972
    33   6 C    3.971 --    31 C    1.007    70 H    0.980    71 H    0.977
                            69 H    0.972
    34   1 H    0.956 --     5 C    0.875
    35   1 H    0.917 --     8 C    0.911
    36   1 H    0.914 --     8 C    0.908
    37   1 H    0.912 --     8 C    0.907
    38   1 H    0.993 --    11 C    0.974
    39   1 H    0.992 --    11 C    0.976
    40   1 H    0.993 --    11 C    0.974
    41   1 H    0.982 --    12 C    0.952
    42   1 H    0.989 --    13 C    0.956
    43   1 H    0.982 --    14 C    0.938
    44   1 H    0.995 --    14 C    0.971
    45   1 H    0.993 --    15 C    0.958
    46   1 H    0.968 --    15 C    0.913
    47   1 H    0.982 --     2 C    0.903
    48   1 H    0.994 --    16 C    0.955
    49   1 H    0.991 --    18 C    0.963
    50   1 H    0.994 --    18 C    0.968
    51   1 H    0.995 --    19 C    0.971
    52   1 H    0.995 --    19 C    0.971
    53   1 H    0.997 --    21 C    0.968
    54   1 H    0.994 --    22 C    0.963
    55   1 H    0.990 --    25 C    0.972
    56   1 H    0.990 --    25 C    0.972
    57   1 H    0.992 --    25 C    0.976
    58   1 H    0.992 --    28 C    0.976
    59   1 H    0.992 --    28 C    0.973
    60   1 H    0.992 --    28 C    0.973
    61   1 H    0.996 --    29 C    0.962
    62   1 H    0.985 --    30 C    0.965
    63   1 H    0.988 --    30 C    0.964
    64   1 H    0.993 --    30 C    0.977
    65   1 H    0.984 --    31 C    0.953
    66   1 H    0.989 --    32 C    0.972
    67   1 H    0.995 --    32 C    0.980
    68   1 H    0.992 --    32 C    0.979
    69   1 H    0.989 --    33 C    0.972
    70   1 H    0.994 --    33 C    0.980
    71   1 H    0.991 --    33 C    0.977
    72   1 H    0.967 --     1 N    0.940
 ---------------------------------------------------------------------------

molecular dipole:
                 x           y           z       tot (Debye)
 q only:        1.974      -0.456       0.337
   full:        2.100      -0.628       0.292       5.621

           -------------------------------------------------
          | TOTAL ENERGY              -99.267605447000 Eh   |
          | GRADIENT NORM               0.002778418647 Eh/α |
          | HOMO-LUMO GAP               0.808061896849 eV   |
           -------------------------------------------------

 * finished run on 2024/04/06 at 11:12:47.415
