   * xtb version 6.6.1 (8d0f1dd) compiled by 'conda@1efc2f54142f' on 2023-08-01
          program call               : xtb struc.xyz --opt loose --input .xc1 --gfn2

   ID    Z sym.   atoms
    1    6 C      1, 3, 5-7, 10, 11, 14
    2    7 N      2, 4, 9, 13
    3    8 O      8, 12
    4    1 H      15-25
constraining bond 7 8 to    3.7600000 Å, actual value:    1.2054518 Å

          :  Hamiltonian                  GFN2-xTB          :
 * total energy  :   -30.5934070 Eh     change       -0.6633627E-10 Eh
 * total energy  :   -34.7228970 Eh     change       -0.4129490E+01 Eh
 * total energy  :   -38.1818314 Eh     change       -0.3458934E+01 Eh
 * total energy  :   -40.3967413 Eh     change       -0.2214910E+01 Eh
 * total energy  :   -41.4213147 Eh     change       -0.1024573E+01 Eh
 * total energy  :   -41.6238961 Eh     change       -0.2025814E+00 Eh
 * total energy  :   -41.6435903 Eh     change       -0.1969420E-01 Eh
 * total energy  :   -41.6488538 Eh     change       -0.5263459E-02 Eh
 * total energy  :   -41.7204528 Eh     change       -0.7159900E-01 Eh
 * total energy  :   -41.7346289 Eh     change       -0.1417611E-01 Eh
 * total energy  :   -42.1553401 Eh     change       -0.1324117E-03 Eh
 * total energy  :   -42.1554728 Eh     change       -0.1326750E-03 Eh
 * total energy  :   -42.1555532 Eh     change       -0.8040492E-04 Eh
 * total energy  :   -42.1556436 Eh     change       -0.9037884E-04 Eh
 * total energy  :   -42.1557386 Eh     change       -0.9503625E-04 Eh
 * total energy  :   -42.1558738 Eh     change       -0.1351436E-03 Eh
 * total energy  :   -42.1559751 Eh     change       -0.1013217E-03 Eh
 * total energy  :   -42.1560468 Eh     change       -0.7168978E-04 Eh
 * total energy  :   -42.1560791 Eh     change       -0.3230825E-04 Eh
   *** GEOMETRY OPTIMIZATION CONVERGED AFTER 70 ITERATIONS ***

 final structure:
================
25
 xtb: 6.6.1 (8d0f1dd)
C            3.01298415751707        1.36726980602712        0.18470165314689
N            2.12755046834853        0.19229914992299        0.15191899845188
C            2.49625005008989       -1.07079093823201        0.02667278997385
N            1.40917618086599       -1.86434767392335       -0.06397942454691
C            0.30586720788091       -1.06288614435824       -0.00066510113979
C            0.75255749088825        0.24912192848400        0.13194951711084
C           -0.12690887079638        1.36385432355640        0.25243648782860
O            3.36510765229298        1.73651677290558       -1.09232795559513
N           -1.40007002363969        0.98034335743043        0.20243762653261
C           -2.42330997517421        2.00567491147360        0.32008456678965
C           -1.93072535019505       -0.31336726135644        0.04694726045764
O           -3.10843554613520       -0.52609428023275       -0.00123839998563
N           -0.99689087523707       -1.36695054783342       -0.05015273783365
C           -1.47959788847498       -2.72583256963719       -0.20287609048652
H            2.46950686809289        2.14479732905543        0.73449330410131
H            3.92725977307011        1.08046915023776        0.71526370796595
H            2.71112696854536        2.32739943745778       -1.48842637340280
H            3.51204907094681       -1.41678018187569       -0.00010770681747
H           -1.93036703263548        2.96689461287677        0.42970580200818
H           -3.05742481109031        2.00023077912631       -0.56643500135161
H           -3.05445840826547        1.80184636071236        1.18534700795489
H           -1.13790623022841       -3.34652594772967        0.62524600381729
H           -1.14356832623272       -3.14433017211582       -1.15171218396550
H           -2.56826551913541       -2.68921682788430       -0.19629504454189
H            1.42892448280252       -2.87135683248772       -0.16181708857261

          :  Hamiltonian                  GFN2-xTB          :
         :: total energy             -42.156079100656 Eh    ::
         :: gradient norm              0.002967993481 Eh/a0 ::
         :: HOMO-LUMO gap              1.677719920511 eV    ::
         :: SCC energy               -42.663265049100 Eh    ::
         :: -> dispersion             -0.022215698018 Eh    ::
         :: repulsion energy           0.507070879739 Eh    ::

    * Orbital Energies and Occupations

         #    Occupation            Energy/Eh            Energy/eV
      -------------------------------------------------------------
         1        2.0000           -0.9117458             -24.8099
       ...           ...                  ...                  ...
        25        2.0000           -0.6720315             -18.2869
        26        2.0000           -0.6492801             -17.6678
        27        2.0000           -0.6442201             -17.5301
        28        2.0000           -0.6398271             -17.4106
        29        2.0000           -0.6259026             -17.0317
        30        2.0000           -0.6243103             -16.9883
        31        2.0000           -0.6120755             -16.6554
        32        2.0000           -0.5972694             -16.2525
        33        2.0000           -0.5926723             -16.1274
        34        2.0000           -0.5812146             -15.8157
        35        2.0000           -0.5801521             -15.7867
        36        1.9999           -0.5539295             -15.0732
        37        1.9599           -0.5060139             -13.7693 (HOMO)
        38        0.0398           -0.4443588             -12.0916 (LUMO)
        39        0.0004           -0.4077720             -11.0960
        40        0.0000           -0.3738872             -10.1740
        41                         -0.2855102              -7.7691
        42                         -0.2048724              -5.5749
        43                         -0.1982796              -5.3955
        44                         -0.1476031              -4.0165
        45                         -0.1127228              -3.0673
        46                         -0.0802936              -2.1849
        47                         -0.0665465              -1.8108
        48                         -0.0464302              -1.2634
       ...                                ...                  ...
        67                          0.5385669              14.6552
      -------------------------------------------------------------
                  HL-Gap            0.0616551 Eh            1.6777 eV

     #   Z          covCN         q      C6AA      α(0)
     1   6 C        3.613     0.116    19.139     6.315
     2   7 N        2.839     0.033    20.667     6.752
     3   6 C        3.058     0.075    26.280     8.407
     4   7 N        2.789    -0.058    22.366     7.024
     5   6 C        3.059     0.116    25.400     8.265
     6   6 C        3.129     0.023    27.298     8.554
     7   6 C        1.922    -0.152    35.403     9.609
     8   8 O        1.658    -0.391    20.673     6.138
     9   7 N        2.764     0.015    20.992     6.805
    10   6 C        3.721    -0.072    21.990     6.697
    11   6 C        2.734     0.309    21.754     7.636
    12   8 O        0.859    -0.364    20.966     6.139
    13   7 N        2.739    -0.048    22.168     6.993
    14   6 C        3.696    -0.070    22.012     6.711
    15   1 H        0.924     0.096     1.818     2.109
    16   1 H        0.924     0.101     1.776     2.084
    17   1 H        0.805     0.329     0.639     1.256
    18   1 H        0.926     0.128     1.553     1.948
    19   1 H        0.925     0.105     1.743     2.065
    20   1 H        0.925     0.098     1.800     2.098
    21   1 H        0.924     0.098     1.806     2.102
    22   1 H        0.925     0.080     1.984     2.203
    23   1 H        0.925     0.081     1.973     2.196
    24   1 H        0.925     0.124     1.578     1.965
    25   1 H        0.860     0.228     0.974     1.546

Wiberg/Mayer (AO) data.
largest (>0.10) Wiberg bond orders for each atom

     #   Z sym  total        # sym  WBO       # sym  WBO       # sym  WBO
 ---------------------------------------------------------------------------
     1   6 C    3.919 --     8 O    1.055    15 H    0.957    16 H    0.956
                             2 N    0.920
     2   7 N    3.684 --     3 C    1.425     6 C    1.144     1 C    0.920
     3   6 C    3.902 --     2 N    1.425     4 N    1.295    18 H    0.951
     4   7 N    3.609 --     3 C    1.295     5 C    1.183    25 H    0.917
     5   6 C    3.949 --     6 C    1.320    13 N    1.238     4 N    1.183
     6   6 C    3.916 --     5 C    1.320     7 C    1.185     2 N    1.144
     7   6 C    2.846 --     9 N    1.417     6 C    1.185
     8   8 O    2.027 --     1 C    1.055    17 H    0.877
     9   7 N    3.679 --     7 C    1.417    11 C    1.065    10 C    0.981
                            12 O    0.113
    10   6 C    3.933 --     9 N    0.981    19 H    0.975    20 H    0.962
                            21 H    0.962
    11   6 C    3.955 --    12 O    1.727     9 N    1.065    13 N    1.049
    12   8 O    2.074 --    11 C    1.727    13 N    0.138     9 N    0.113
    13   7 N    3.592 --     5 C    1.238    11 C    1.049    14 C    0.974
                            12 O    0.138
    14   6 C    3.930 --    13 N    0.974    22 H    0.971    23 H    0.971
                            24 H    0.965
    15   1 H    0.991 --     1 C    0.957
    16   1 H    0.989 --     1 C    0.956
    17   1 H    0.892 --     8 O    0.877
    18   1 H    0.983 --     3 C    0.951
    19   1 H    0.989 --    10 C    0.975
    20   1 H    0.988 --    10 C    0.962
    21   1 H    0.988 --    10 C    0.962
    22   1 H    0.993 --    14 C    0.971
    23   1 H    0.993 --    14 C    0.971
    24   1 H    0.984 --    14 C    0.965
    25   1 H    0.948 --     4 N    0.917
 ---------------------------------------------------------------------------

molecular dipole:
                 x           y           z       tot (Debye)
 q only:        2.112      -0.968       0.168
   full:        2.170      -1.788       0.145       7.157

           -------------------------------------------------
          | TOTAL ENERGY              -42.156079100656 Eh   |
          | GRADIENT NORM               0.002967993481 Eh/α |
          | HOMO-LUMO GAP               1.677719920511 eV   |
           -------------------------------------------------

 * finished run on 2024/06/05 at 19:58:02.324
