   * xtb version 6.6.1 (8d0f1dd) compiled by 'conda@1efc2f54142f' on 2023-08-01
          program call               : xtb xtbopt.xyz --opt crude --input .xc2 --gfn2

   ID    Z sym.   atoms
    1    6 C      1, 3, 5-7, 10, 11, 14
    2    7 N      2, 4, 9, 13
    3    8 O      8, 12
    4    1 H      15-25
########################################################################
[WARNING] Please study the warnings concerning your input carefully
-1- readin_getIntValue: could not parse ''
########################################################################

          :  Hamiltonian                  GFN2-xTB          :
 * total energy  :   -42.1560796 Eh     change        0.0000000E+00 Eh
 * total energy  :   -42.1560935 Eh     change       -0.1398009E-04 Eh
   *** GEOMETRY OPTIMIZATION CONVERGED AFTER 2 ITERATIONS ***

 final structure:
================
25
 xtb: 6.6.1 (8d0f1dd)
C            3.01203049545282        1.36793618728312        0.18671223375840
N            2.12737574360029        0.19209681907407        0.15267569104402
C            2.49605456054570       -1.07067455465143        0.02519378104460
N            1.40912818383309       -1.86423957521560       -0.06575336782959
C            0.30584491115699       -1.06338118890851       -0.00084055336310
C            0.75262344819309        0.24832765314809        0.13274591955517
C           -0.12620901492975        1.36386413382157        0.24964817722707
O            3.36433575467403        1.73780689249999       -1.08936258732792
N           -1.39963405627534        0.98045153073742        0.20102396195214
C           -2.42243170865978        2.00565437170560        0.31839027145080
C           -1.93041919267108       -0.31331792465420        0.04799126423400
O           -3.10801246850715       -0.52608790458885        0.00202836142734
N           -0.99705334550120       -1.36715905217770       -0.04968075279182
C           -1.47995169836473       -2.72608553530453       -0.20164273347592
H            2.47042917437166        2.14433752967259        0.73876780287729
H            3.92672834117234        1.08174666104003        0.71548287831619
H            2.70970406629844        2.32618783078283       -1.48711979506966
H            3.51149413473045       -1.41626344869738       -0.00478194639354
H           -1.92922468889365        2.96668510587982        0.42768024050471
H           -3.05696649588002        2.00015621374298       -0.56772433475172
H           -3.05341004665938        1.80189410528601        1.18353048815393
H           -1.13873561929404       -3.34644888483732        0.62711531598152
H           -1.14350075941807       -3.14563305938218       -1.15001758655900
H           -2.56872640071933       -2.68891794053493       -0.19549035882077
H            1.42895819584556       -2.87069742412157       -0.16540075324406

          :  Hamiltonian                  GFN2-xTB          :
         :: total energy             -42.156093549040 Eh    ::
         :: gradient norm              0.001056937062 Eh/a0 ::
         :: HOMO-LUMO gap              1.678428694712 eV    ::
         :: SCC energy               -42.663888883256 Eh    ::
         :: -> dispersion             -0.022218095261 Eh    ::
         :: repulsion energy           0.507680696405 Eh    ::

    * Orbital Energies and Occupations

         #    Occupation            Energy/Eh            Energy/eV
      -------------------------------------------------------------
         1        2.0000           -0.9118110             -24.8116
       ...           ...                  ...                  ...
        25        2.0000           -0.6720364             -18.2870
        26        2.0000           -0.6493457             -17.6696
        27        2.0000           -0.6442050             -17.5297
        28        2.0000           -0.6398568             -17.4114
        29        2.0000           -0.6258884             -17.0313
        30        2.0000           -0.6242994             -16.9881
        31        2.0000           -0.6120371             -16.6544
        32        2.0000           -0.5972813             -16.2529
        33        2.0000           -0.5927403             -16.1293
        34        2.0000           -0.5812084             -15.8155
        35        2.0000           -0.5801217             -15.7859
        36        1.9999           -0.5539219             -15.0730
        37        1.9600           -0.5060324             -13.7698 (HOMO)
        38        0.0397           -0.4443513             -12.0914 (LUMO)
        39        0.0004           -0.4077427             -11.0952
        40        0.0000           -0.3737983             -10.1716
        41                         -0.2854477              -7.7674
        42                         -0.2047865              -5.5725
        43                         -0.1981396              -5.3917
        44                         -0.1474712              -4.0129
        45                         -0.1124055              -3.0587
        46                         -0.0799468              -2.1755
        47                         -0.0657515              -1.7892
        48                         -0.0462065              -1.2573
       ...                                ...                  ...
        67                          0.5391792              14.6718
      -------------------------------------------------------------
                  HL-Gap            0.0616811 Eh            1.6784 eV

     #   Z          covCN         q      C6AA      α(0)
     1   6 C        3.613     0.116    19.137     6.314
     2   7 N        2.839     0.033    20.667     6.752
     3   6 C        3.059     0.075    26.279     8.407
     4   7 N        2.790    -0.058    22.364     7.024
     5   6 C        3.059     0.116    25.400     8.265
     6   6 C        3.130     0.023    27.293     8.553
     7   6 C        1.922    -0.152    35.407     9.610
     8   8 O        1.658    -0.391    20.671     6.138
     9   7 N        2.764     0.015    20.993     6.805
    10   6 C        3.721    -0.072    21.990     6.697
    11   6 C        2.734     0.309    21.753     7.636
    12   8 O        0.859    -0.364    20.967     6.139
    13   7 N        2.739    -0.048    22.170     6.993
    14   6 C        3.696    -0.070    22.011     6.711
    15   1 H        0.924     0.096     1.819     2.109
    16   1 H        0.924     0.101     1.775     2.084
    17   1 H        0.805     0.329     0.639     1.256
    18   1 H        0.926     0.128     1.553     1.949
    19   1 H        0.925     0.105     1.743     2.065
    20   1 H        0.925     0.098     1.801     2.099
    21   1 H        0.925     0.098     1.806     2.102
    22   1 H        0.925     0.080     1.984     2.203
    23   1 H        0.924     0.081     1.973     2.197
    24   1 H        0.925     0.124     1.578     1.965
    25   1 H        0.860     0.228     0.974     1.546

Wiberg/Mayer (AO) data.
largest (>0.10) Wiberg bond orders for each atom

     #   Z sym  total        # sym  WBO       # sym  WBO       # sym  WBO
 ---------------------------------------------------------------------------
     1   6 C    3.919 --     8 O    1.055    15 H    0.957    16 H    0.956
                             2 N    0.919
     2   7 N    3.685 --     3 C    1.425     6 C    1.144     1 C    0.919
     3   6 C    3.902 --     2 N    1.425     4 N    1.295    18 H    0.951
     4   7 N    3.609 --     3 C    1.295     5 C    1.183    25 H    0.917
     5   6 C    3.949 --     6 C    1.320    13 N    1.238     4 N    1.183
     6   6 C    3.916 --     5 C    1.320     7 C    1.185     2 N    1.144
     7   6 C    2.846 --     9 N    1.417     6 C    1.185
     8   8 O    2.027 --     1 C    1.055    17 H    0.877
     9   7 N    3.679 --     7 C    1.417    11 C    1.065    10 C    0.981
                            12 O    0.113
    10   6 C    3.933 --     9 N    0.981    19 H    0.975    20 H    0.962
                            21 H    0.962
    11   6 C    3.955 --    12 O    1.727     9 N    1.065    13 N    1.049
    12   8 O    2.075 --    11 C    1.727    13 N    0.138     9 N    0.113
    13   7 N    3.592 --     5 C    1.238    11 C    1.049    14 C    0.974
                            12 O    0.138
    14   6 C    3.930 --    13 N    0.974    22 H    0.971    23 H    0.971
                            24 H    0.965
    15   1 H    0.991 --     1 C    0.957
    16   1 H    0.989 --     1 C    0.956
    17   1 H    0.892 --     8 O    0.877
    18   1 H    0.983 --     3 C    0.951
    19   1 H    0.989 --    10 C    0.975
    20   1 H    0.988 --    10 C    0.962
    21   1 H    0.988 --    10 C    0.962
    22   1 H    0.993 --    14 C    0.971
    23   1 H    0.993 --    14 C    0.971
    24   1 H    0.984 --    14 C    0.965
    25   1 H    0.948 --     4 N    0.917
 ---------------------------------------------------------------------------

molecular dipole:
                 x           y           z       tot (Debye)
 q only:        2.113      -0.969       0.164
   full:        2.170      -1.790       0.140       7.159

           -------------------------------------------------
          | TOTAL ENERGY              -42.156093549040 Eh   |
          | GRADIENT NORM               0.001056937062 Eh/α |
          | HOMO-LUMO GAP               1.678428694712 eV   |
           -------------------------------------------------

 * finished run on 2024/06/05 at 19:58:02.487
