   * xtb version 6.6.1 (8d0f1dd) compiled by 'conda@1efc2f54142f' on 2023-08-01
          program call               : xtb struc.xyz --opt loose --input .xc1 --gfn2

   ID    Z sym.   atoms
    1    7 N      1, 17
    2    6 C      2-6, 8, 9, 11-16, 18-23, 25, 26, 28-33
    3    8 O      7, 10, 24, 27
    4    1 H      34-72
constraining bond 26 54 to    3.7133300 Å, actual value:    3.4015084 Å

          :  Hamiltonian                  GFN2-xTB          :
 * total energy  :   -99.4214921 Eh     change       -0.4035485E-08 Eh
 * total energy  :   -99.4514631 Eh     change       -0.2997097E-01 Eh
 * total energy  :   -99.4778464 Eh     change       -0.2638329E-01 Eh
 * total energy  :   -99.5024739 Eh     change       -0.2462749E-01 Eh
 * total energy  :   -99.5491057 Eh     change       -0.4663184E-01 Eh
 * total energy  :   -99.5960079 Eh     change       -0.4690222E-01 Eh
 * total energy  :   -99.6810180 Eh     change       -0.8501002E-01 Eh
 * total energy  :   -99.9342436 Eh     change       -0.2532256E+00 Eh
 * total energy  :  -100.2809538 Eh     change       -0.3467102E+00 Eh
 * total energy  :   -99.4259660 Eh     change        0.8549878E+00 Eh
 * total energy  :  -100.7921206 Eh     change       -0.4976801E-03 Eh
 * total energy  :  -100.7925283 Eh     change       -0.4077040E-03 Eh
 * total energy  :  -100.7927169 Eh     change       -0.1885870E-03 Eh
 * total energy  :  -100.7928012 Eh     change       -0.8428443E-04 Eh
 * total energy  :  -100.7929104 Eh     change       -0.1092101E-03 Eh
 * total energy  :  -100.7929684 Eh     change       -0.5798518E-04 Eh
 * total energy  :  -100.7930092 Eh     change       -0.4081018E-04 Eh
 * total energy  :  -100.7930550 Eh     change       -0.4580689E-04 Eh
 * total energy  :  -100.7930985 Eh     change       -0.4347912E-04 Eh
   *** GEOMETRY OPTIMIZATION CONVERGED AFTER 98 ITERATIONS ***

 final structure:
================
72
 xtb: 6.6.1 (8d0f1dd)
N           -1.80935232489584        2.72802913057868        2.31290673079221
C           -1.80555572752212        2.02009298015907        1.28411729020759
C           -2.96845042438700        1.87081053938906        0.34270655062375
C           -3.43390884735158        0.42319891691601        0.34263710533480
C           -4.32630827880650       -0.02266469615383       -0.63458390929024
C           -4.79856569672315       -1.32457018761485       -0.64294545167261
O           -5.66067883154959       -1.83602383016868       -1.54661109086328
C           -6.21026343494867       -0.99242404229256       -2.53079926690892
C           -4.36841656220019       -2.23202523467757        0.36247504887189
O           -4.88086906808454       -3.47645015928659        0.27901102560996
C           -4.58556258042618       -4.40740326074164        1.29404323286006
C           -3.48424640395239       -1.78248383114539        1.32997809758902
C           -3.02505194796487       -0.47162625002191        1.31904770451247
C           -2.42700567986875        2.26771098158664       -1.05616859304194
C           -1.51780626481533        1.21478356583663       -1.71319184445076
C           -0.18292557981916        1.10204630399076       -1.08481741576418
N            0.44897832134785       -0.03645809744999       -0.83311210681148
C            1.83475294339232       -0.02745520109715       -0.41792894150153
C            2.77112856493674       -0.23395050143192       -1.61310204040401
C            4.21576985782192       -0.29137256585265       -1.22866404153041
C            4.78983586721648       -0.11124323818534        0.00356343952879
C            6.21606822832793       -0.22220527677416       -0.14268151718763
C            7.16943854806945       -0.09388994717547        0.85482524370507
O            8.45905456254746        0.17308939998752        0.68518046010431
C            8.96819342745918        0.74088513745581       -0.50870580097461
C            6.48296644110154       -0.50275974612229       -1.54327902548066
O            6.96073720448696       -0.21057397593551        2.16541234160375
C            5.88270636140946       -0.96055903958435        2.68899147788099
C            5.25714475629971       -0.55753378299992       -2.16343600966664
C           -0.17758785140641       -1.32021474130567       -1.04195044382718
C           -4.18638022928252        2.76905948900619        0.71120356534966
C           -4.78246874825742        2.37650640117774        2.06096640068714
C           -3.85806306165675        4.25957679946771        0.70775936556055
H           -4.66891599476961        0.66461871021878       -1.39033005533472
H           -6.76079120818910       -0.15917816693757       -2.08387086517142
H           -6.89936839901025       -1.61592573036018       -3.09700222758880
H           -5.43961585362161       -0.60392054688907       -3.20482662583965
H           -4.90695186660615       -4.04525947091859        2.27508215968886
H           -5.14600509668829       -5.30467860671576        1.03922871703800
H           -3.51726552341878       -4.64466780947959        1.32388610144886
H           -3.15356778397111       -2.44353744067720        2.11450533902158
H           -2.36217343342270       -0.15019564777907        2.10743891235645
H           -3.27233556268448        2.44457519357328       -1.72042357956030
H           -1.87875383993672        3.20616186187190       -0.96540214004498
H           -2.03041891417036        0.25479819728667       -1.73747333764786
H           -1.36230497509978        1.53753228375325       -2.75126463225018
H           -0.92061536311098        1.45927073844330        0.92495400589855
H            0.38492463352594        2.01085060397748       -0.94921174369692
H            1.98998226690369       -0.82393343004427        0.31407865023190
H            2.06054325579721        0.93012220410873        0.05608858565457
H            2.62366203645464        0.58438017726102       -2.32653393715036
H            2.50815590282872       -1.16223718811371       -2.13033239035407
H            4.28315928584313        0.16118912838230        0.90778209934922
H            7.18083255019795       -0.65600679206582       -1.86255523708322
H            8.22095025845369        1.35705659883593       -1.01098914511402
H            9.32075472014758       -0.04241241700676       -1.18200919612725
H            9.81592020519773        1.35431329288544       -0.20485704479967
H            6.27441244231994       -1.48611299274390        3.56114243326183
H            5.08050936475181       -0.29251508055766        3.01132221946399
H            5.50086518040192       -1.67882030216661        1.96112956809873
H            5.09830657094522       -0.77047261736697       -3.20515184794201
H           -0.40935323616676       -1.48025097856147       -2.09695083206933
H           -1.10366549304340       -1.39099802319210       -0.46533430333079
H            0.49696091037783       -2.10694292250828       -0.71416904011418
H           -4.94668718067468        2.58649576172011       -0.05725926988115
H           -4.06344056916070        2.55952933463511        2.85298530166082
H           -5.06662269274898        1.32708646896610        2.07572862191033
H           -5.66969653825290        2.97351563611745        2.25444803615246
H           -3.07720014824277        4.47434815521686        1.43057977269749
H           -3.54495989369938        4.60537421824264       -0.27375307780894
H           -4.74562066665982        4.81989351614006        0.98974617690754
H           -0.95440129429368        2.77919156544646        2.85799108921140

          :  Hamiltonian                  GFN2-xTB          :
         :: total energy            -100.793098507186 Eh    ::
         :: gradient norm              0.002308228885 Eh/a0 ::
         :: HOMO-LUMO gap              1.716896185490 eV    ::
         :: SCC energy              -100.770822749943 Eh    ::
         :: -> dispersion             -0.075220635096 Eh    ::
         :: repulsion energy           1.510083520385 Eh    ::

    * Orbital Energies and Occupations

         #    Occupation            Energy/Eh            Energy/eV
      -------------------------------------------------------------
         1        2.0000           -0.8414975             -22.8983
       ...           ...                  ...                  ...
        78        1.9984           -0.5278563             -14.3637
        79        1.9983           -0.5272515             -14.3472
        80        1.9982           -0.5266666             -14.3313
        81        1.9979           -0.5234651             -14.2442
        82        1.9975           -0.5208997             -14.1744
        83        1.9960           -0.5134756             -13.9724
        84        1.9953           -0.5109638             -13.9040
        85        1.9944           -0.5082890             -13.8312
        86        1.9814           -0.4891530             -13.3105
        87        1.9394           -0.4700876             -12.7917
        88        1.9136           -0.4642714             -12.6335
        89        1.8751           -0.4581108             -12.4658
        90        1.8578           -0.4559134             -12.4060 (HOMO)
        91        0.3910           -0.3928187             -10.6891 (LUMO)
        92        0.0526           -0.3580293              -9.7425
        93        0.0146           -0.3374533              -9.1826
        94        0.0036           -0.3151921              -8.5768
        95        0.0029           -0.3119918              -8.4897
        96        0.0000           -0.2371016              -6.4519
        97        0.0000           -0.2231510              -6.0722
        98        0.0000           -0.1894309              -5.1547
        99                         -0.1381893              -3.7603
       100                         -0.1125996              -3.0640
       101                         -0.0666853              -1.8146
       ...                                ...                  ...
       171                          1.2877726              35.0421
      -------------------------------------------------------------
                  HL-Gap            0.0630948 Eh            1.7169 eV

     #   Z          covCN         q      C6AA      α(0)
     1   7 N        1.774    -0.270    27.829     7.812
     2   6 C        2.828     0.102    25.737     8.313
     3   6 C        3.908     0.006    20.414     6.422
     4   6 C        2.974     0.001    27.997     8.679
     5   6 C        2.920    -0.081    30.016     8.984
     6   6 C        2.862     0.129    25.178     8.225
     7   8 O        1.706    -0.231    17.831     5.701
     8   6 C        3.644     0.028    20.441     6.499
     9   6 C        2.864     0.128    25.190     8.227
    10   8 O        1.706    -0.230    17.806     5.697
    11   6 C        3.645     0.027    20.451     6.499
    12   6 C        2.914    -0.074    29.858     8.960
    13   6 C        2.922    -0.053    29.313     8.879
    14   6 C        3.813    -0.064    21.722     6.634
    15   6 C        3.802    -0.070    21.830     6.652
    16   6 C        2.844     0.008    27.827     8.645
    17   7 N        2.729     0.010    21.076     6.818
    18   6 C        3.754    -0.017    20.941     6.525
    19   6 C        3.804    -0.066    21.762     6.641
    20   6 C        3.065    -0.009    28.174     8.704
    21   6 C        3.012    -0.069    29.695     8.939
    22   6 C        3.090    -0.065    29.507     8.904
    23   6 C        2.725     0.290    22.088     7.694
    24   8 O        1.706    -0.209    17.471     5.643
    25   6 C        3.638     0.016    20.668     6.540
    26   6 C        2.989    -0.079    29.973     8.981
    27   8 O        1.706    -0.216    17.587     5.662
    28   6 C        3.639     0.021    20.591     6.527
    29   6 C        3.050    -0.056    29.333     8.883
    30   6 C        3.699    -0.069    21.994     6.707
    31   6 C        3.853    -0.007    20.670     6.466
    32   6 C        3.756    -0.118    22.815     6.810
    33   6 C        3.755    -0.119    22.840     6.814
    34   1 H        0.926     0.051     2.303     2.373
    35   1 H        0.924     0.054     2.276     2.359
    36   1 H        0.925     0.081     1.971     2.195
    37   1 H        0.924     0.046     2.368     2.406
    38   1 H        0.924     0.055     2.262     2.352
    39   1 H        0.925     0.081     1.971     2.195
    40   1 H        0.924     0.048     2.345     2.395
    41   1 H        0.926     0.052     2.298     2.370
    42   1 H        0.926     0.039     2.464     2.455
    43   1 H        0.925     0.060     2.195     2.317
    44   1 H        0.924     0.054     2.271     2.357
    45   1 H        0.925     0.067     2.120     2.277
    46   1 H        0.923     0.080     1.983     2.202
    47   1 H        0.922     0.004     2.988     2.703
    48   1 H        0.926     0.070     2.084     2.257
    49   1 H        0.924     0.068     2.108     2.270
    50   1 H        0.924     0.066     2.125     2.279
    51   1 H        0.924     0.054     2.273     2.358
    52   1 H        0.924     0.056     2.246     2.344
    53   1 H        0.926     0.018     2.760     2.598
    54   1 H        0.930     0.081     1.973     2.196
    55   1 H        0.924     0.069     2.097     2.265
    56   1 H        0.924     0.076     2.022     2.224
    57   1 H        0.925     0.092     1.861     2.133
    58   1 H        0.924     0.089     1.893     2.151
    59   1 H        0.924     0.067     2.113     2.273
    60   1 H        0.924     0.065     2.143     2.289
    61   1 H        0.926     0.031     2.567     2.506
    62   1 H        0.924     0.076     2.016     2.220
    63   1 H        0.924     0.078     2.002     2.213
    64   1 H        0.925     0.082     1.962     2.190
    65   1 H        0.924     0.037     2.493     2.469
    66   1 H        0.925     0.067     2.118     2.276
    67   1 H        0.925     0.035     2.516     2.481
    68   1 H        0.925     0.051     2.308     2.376
    69   1 H        0.925     0.062     2.173     2.305
    70   1 H        0.925     0.035     2.521     2.483
    71   1 H        0.925     0.054     2.268     2.355
    72   1 H        0.860     0.155     1.365     1.830

Wiberg/Mayer (AO) data.
largest (>0.10) Wiberg bond orders for each atom

     #   Z sym  total        # sym  WBO       # sym  WBO       # sym  WBO
 ---------------------------------------------------------------------------
     1   7 N    3.038 --     2 C    1.955    72 H    0.942
     2   6 C    3.930 --     1 N    1.955     3 C    0.994    47 H    0.902
     3   6 C    3.976 --     2 C    0.994     4 C    0.971    14 C    0.956
                            31 C    0.943
     4   6 C    3.950 --    13 C    1.415     5 C    1.368     3 C    0.971
     5   6 C    3.963 --     6 C    1.401     4 C    1.368    34 H    0.958
     6   6 C    3.906 --     5 C    1.401     9 C    1.223     7 O    1.098
     7   8 O    2.253 --     6 C    1.098     8 C    0.978
     8   6 C    3.933 --     7 O    0.978    36 H    0.977    37 H    0.974
                            35 H    0.974
     9   6 C    3.902 --    12 C    1.392     6 C    1.223    10 O    1.100
    10   8 O    2.252 --     9 C    1.100    11 C    0.978
    11   6 C    3.932 --    10 O    0.978    39 H    0.977    40 H    0.974
                            38 H    0.974
    12   6 C    3.963 --    13 C    1.404     9 C    1.392    41 H    0.964
    13   6 C    3.955 --     4 C    1.415    12 C    1.404    42 H    0.962
    14   6 C    3.974 --    15 C    0.983    44 H    0.972    43 H    0.968
                             3 C    0.956
    15   6 C    3.987 --    16 C    1.060    14 C    0.983    45 H    0.960
                            46 H    0.927
    16   6 C    3.597 --    17 N    1.410    15 C    1.060    48 H    0.957
    17   7 N    3.481 --    16 C    1.410    30 C    0.999    18 C    0.983
    18   6 C    3.956 --    17 N    0.983    19 C    0.983    50 H    0.967
                            49 H    0.964
    19   6 C    3.973 --    20 C    1.013    18 C    0.983    52 H    0.961
                            51 H    0.960
    20   6 C    3.901 --    21 C    1.531    29 C    1.222    19 C    1.013
    21   6 C    3.874 --    20 C    1.531    22 C    1.184    53 H    0.969
    22   6 C    3.911 --    23 C    1.352    21 C    1.184    26 C    1.165
    23   6 C    3.840 --    22 C    1.352    24 O    1.159    27 O    1.142
    24   8 O    2.330 --    23 C    1.159    25 C    0.954
    25   6 C    3.908 --    55 H    0.974    57 H    0.973    56 H    0.971
                            24 O    0.954
    26   6 C    3.882 --    29 C    1.574    22 C    1.165    54 H    0.980
    27   8 O    2.313 --    23 C    1.142    28 C    0.958
    28   6 C    3.914 --    60 H    0.975    58 H    0.972    59 H    0.972
                            27 O    0.958
    29   6 C    3.906 --    26 C    1.574    20 C    1.222    61 H    0.973
    30   6 C    3.958 --    17 N    0.999    64 H    0.977    62 H    0.967
                            63 H    0.963
    31   6 C    3.973 --    33 C    1.009    32 C    1.008    65 H    0.961
                             3 C    0.943
    32   6 C    3.980 --    31 C    1.008    67 H    0.982    68 H    0.982
                            66 H    0.975
    33   6 C    3.982 --    31 C    1.009    70 H    0.983    71 H    0.980
                            69 H    0.976
    34   1 H    0.996 --     5 C    0.958
    35   1 H    0.993 --     8 C    0.974
    36   1 H    0.993 --     8 C    0.977
    37   1 H    0.994 --     8 C    0.974
    38   1 H    0.993 --    11 C    0.974
    39   1 H    0.993 --    11 C    0.977
    40   1 H    0.993 --    11 C    0.974
    41   1 H    0.996 --    12 C    0.964
    42   1 H    0.998 --    13 C    0.962
    43   1 H    0.995 --    14 C    0.968
    44   1 H    0.996 --    14 C    0.972
    45   1 H    0.995 --    15 C    0.960
    46   1 H    0.970 --    15 C    0.927
    47   1 H    0.987 --     2 C    0.902
    48   1 H    0.995 --    16 C    0.957
    49   1 H    0.991 --    18 C    0.964
    50   1 H    0.994 --    18 C    0.967
    51   1 H    0.990 --    19 C    0.960
    52   1 H    0.990 --    19 C    0.961
    53   1 H    0.999 --    21 C    0.969
    54   1 H    0.993 --    26 C    0.980
    55   1 H    0.994 --    25 C    0.974
    56   1 H    0.992 --    25 C    0.971
    57   1 H    0.990 --    25 C    0.973
    58   1 H    0.990 --    28 C    0.972
    59   1 H    0.993 --    28 C    0.972
    60   1 H    0.995 --    28 C    0.975
    61   1 H    0.998 --    29 C    0.973
    62   1 H    0.985 --    30 C    0.967
    63   1 H    0.986 --    30 C    0.963
    64   1 H    0.993 --    30 C    0.977
    65   1 H    0.993 --    31 C    0.961
    66   1 H    0.991 --    32 C    0.975
    67   1 H    0.997 --    32 C    0.982
    68   1 H    0.994 --    32 C    0.982
    69   1 H    0.993 --    33 C    0.976
    70   1 H    0.997 --    33 C    0.983
    71   1 H    0.994 --    33 C    0.980
    72   1 H    0.971 --     1 N    0.942
 ---------------------------------------------------------------------------

molecular dipole:
                 x           y           z       tot (Debye)
 q only:        1.255      -0.131      -0.712
   full:        1.459      -0.250      -0.904       4.410

           -------------------------------------------------
          | TOTAL ENERGY             -100.793098507186 Eh   |
          | GRADIENT NORM               0.002308228885 Eh/α |
          | HOMO-LUMO GAP               1.716896185490 eV   |
           -------------------------------------------------

 * finished run on 2024/04/06 at 11:17:03.042
