   * xtb version 6.6.1 (8d0f1dd) compiled by 'conda@1efc2f54142f' on 2023-08-01
          program call               : xtb xtbopt.xyz --opt crude --input .xc2 --gfn2

   ID    Z sym.   atoms
    1    7 N      1, 17
    2    6 C      2-6, 8, 9, 11-16, 18-23, 25, 26, 28-33
    3    8 O      7, 10, 24, 27
    4    1 H      34-72
########################################################################
[WARNING] Please study the warnings concerning your input carefully
-1- readin_getIntValue: could not parse ''
########################################################################

          :  Hamiltonian                  GFN2-xTB          :
 * total energy  :   -99.2594574 Eh     change       -0.9663381E-12 Eh
 * total energy  :   -99.3650848 Eh     change       -0.1056274E+00 Eh
 * total energy  :   -99.3664652 Eh     change       -0.1380395E-02 Eh
 * total energy  :   -99.3669077 Eh     change       -0.4425732E-03 Eh
 * total energy  :   -99.3669899 Eh     change       -0.8218552E-04 Eh
   *** GEOMETRY OPTIMIZATION CONVERGED AFTER 5 ITERATIONS ***

 final structure:
================
72
 xtb: 6.6.1 (8d0f1dd)
N           -1.81218619878909        2.73052830296009        2.31355957901987
C           -1.80761980354299        2.02246519908739        1.28481937598601
C           -2.97040668074050        1.87222843696008        0.34333299688276
C           -3.43428525007040        0.42413963448110        0.34305060125866
C           -4.32638052572308       -0.02184366599485       -0.63437104024735
C           -4.79765811841483       -1.32405530161662       -0.64365888565178
O           -5.65952512118472       -1.83519283494854       -1.54770706078716
C           -6.21081512676978       -0.99034533270047       -2.52984639744216
C           -4.36665819840480       -2.23189547482665        0.36102509926868
O           -4.87844507281512       -3.47653685424918        0.27685466275158
C           -4.58266945982800       -4.40805532682392        1.29119217526718
C           -3.48251878340254       -1.78238463152398        1.32858326988666
C           -3.02438229021181       -0.47109202453539        1.31863998431495
C           -2.43064524501770        2.27023938068862       -1.05587371315190
C           -1.52296118086294        1.21746881318886       -1.71519901257237
C           -0.18896508680007        1.10410961451605       -1.08606594103768
N            0.44010784437148       -0.03439736465859       -0.82731100969727
C            1.82506107801793       -0.02431316229511       -0.41064253845489
C            2.76008283991951       -0.23826372349843       -1.60534711483442
C            4.20622239850641       -0.29384905534602       -1.22584460398246
C            4.78536652853875       -0.11019461889242        0.00341396930335
C            6.21527539155198       -0.22522002866352       -0.14337961376297
C            7.16876857342914       -0.09504677209385        0.85337106869709
O            8.45701532863032        0.17809448767650        0.68982310209718
C            8.97508608518222        0.75365499113608       -0.49511702339245
C            6.45032992355162       -0.50775540709484       -1.53805969791127
O            6.95823840574374       -0.21125119873476        2.16428048190115
C            5.88026988971423       -0.96284467906741        2.68877196078015
C            5.24124962443077       -0.56896121375388       -2.17029208441460
C           -0.18476930415199       -1.31859191729977       -1.03758940042079
C           -4.18887762251460        2.76938672991611        0.71229581691180
C           -4.78401890713904        2.37663761347818        2.06234912950929
C           -3.86133054944219        4.26004649719065        0.70812541364653
H           -4.66938296320926        0.66573296737665       -1.38963315985897
H           -6.76104632405073       -0.15803844066065       -2.08082903970242
H           -6.90041266098505       -1.61322281578239       -3.09610889380495
H           -5.44126819794090       -0.60041564262170       -3.20429689942057
H           -4.90360876836220       -4.04653605983272        2.27260641979500
H           -5.14323233722725       -5.30517527672987        1.03610627456000
H           -3.51437057218720       -4.64536650566101        1.32042042828387
H           -3.15106696010117       -2.44382119195432        2.11245752124407
H           -2.36150111457385       -0.14984266982136        2.10710661440117
H           -3.27669466222698        2.44895001968659       -1.71869222056251
H           -1.88117091312688        3.20794333712950       -0.96469148577166
H           -2.03573123612785        0.25763195475774       -1.74052588749872
H           -1.36765116602094        1.54163038695586       -2.75280425581742
H           -0.92241320077892        1.46193178218455        0.92659279973151
H            0.37979198865831        2.01235040032773       -0.95078454057297
H            1.97951401541973       -0.81714295588092        0.32539687305396
H            2.05124530796776        0.93538347386764        0.05864186661032
H            2.60915199193215        0.57360767988603       -2.32469854807153
H            2.49612585815411       -1.17035188665868       -2.11430043553742
H            4.27946851174949        0.16846307293231        0.90722896622956
H            7.39876407218428       -0.72432607300362       -1.97991182951684
H            8.22545657069615        1.35584688856397       -1.01122995068017
H            9.35204066409956       -0.02461135963614       -1.16174838307248
H            9.80967037923467        1.38003206174665       -0.17952180319489
H            6.27202756980340       -1.48349064191828        3.56336473170676
H            5.07707815881858       -0.29507073082362        3.00736561940307
H            5.50251177966946       -1.68399500232395        1.96239818887966
H            5.07974849065510       -0.78598859122254       -3.20898828258492
H           -0.41262094831703       -1.47940065991430       -2.09327055332856
H           -1.11269198558288       -1.39004519268993       -0.46423708013922
H            0.48929728367494       -2.10448961398865       -0.70695336811890
H           -4.94936540742738        2.58603588576929       -0.05577155738025
H           -4.06536983513047        2.56179434816856        2.85419815894063
H           -5.06577659240569        1.32658682938129        2.07780158281050
H           -5.67255484464544        2.97182304203134        2.25532583341682
H           -3.08016368093803        4.47544719138011        1.43039443512627
H           -3.54883432423793        4.60554419811611       -0.27366206743230
H           -4.74894513180764        4.82009074677031        0.99031414023122
H           -0.95745860406666        2.78173545396406        2.85902108051030

          :  Hamiltonian                  GFN2-xTB          :
         :: total energy             -99.366989912909 Eh    ::
         :: gradient norm              0.004670516245 Eh/a0 ::
         :: HOMO-LUMO gap              1.710762000091 eV    ::
         :: SCC energy              -100.742023685952 Eh    ::
         :: -> dispersion             -0.075220254014 Eh    ::
         :: repulsion energy           1.373737447131 Eh    ::

    * Orbital Energies and Occupations

         #    Occupation            Energy/Eh            Energy/eV
      -------------------------------------------------------------
         1        2.0000           -0.8418747             -22.9086
       ...           ...                  ...                  ...
        78        1.9984           -0.5284963             -14.3811
        79        1.9983           -0.5274156             -14.3517
        80        1.9983           -0.5267341             -14.3332
        81        1.9977           -0.5220901             -14.2068
        82        1.9975           -0.5208759             -14.1738
        83        1.9960           -0.5135050             -13.9732
        84        1.9953           -0.5109911             -13.9048
        85        1.9944           -0.5083340             -13.8325
        86        1.9814           -0.4892053             -13.3120
        87        1.9393           -0.4700911             -12.7918
        88        1.9143           -0.4644415             -12.6381
        89        1.8753           -0.4581728             -12.4675
        90        1.8564           -0.4557773             -12.4023 (HOMO)
        91        0.3921           -0.3929079             -10.6916 (LUMO)
        92        0.0521           -0.3579049              -9.7391
        93        0.0146           -0.3374996              -9.1838
        94        0.0036           -0.3152586              -8.5786
        95        0.0030           -0.3120567              -8.4915
        96        0.0000           -0.2366569              -6.4398
        97        0.0000           -0.2216807              -6.0322
        98        0.0000           -0.1894970              -5.1565
        99                         -0.1381052              -3.7580
       100                         -0.1132010              -3.0804
       101                         -0.0666306              -1.8131
       ...                                ...                  ...
       171                          0.5970648              16.2470
      -------------------------------------------------------------
                  HL-Gap            0.0628693 Eh            1.7108 eV

     #   Z          covCN         q      C6AA      α(0)
     1   7 N        1.774    -0.270    27.830     7.812
     2   6 C        2.828     0.102    25.739     8.313
     3   6 C        3.908     0.006    20.414     6.422
     4   6 C        2.974     0.001    27.997     8.679
     5   6 C        2.920    -0.081    30.017     8.985
     6   6 C        2.862     0.129    25.178     8.225
     7   8 O        1.706    -0.231    17.832     5.701
     8   6 C        3.644     0.028    20.441     6.499
     9   6 C        2.864     0.128    25.191     8.227
    10   8 O        1.706    -0.230    17.806     5.697
    11   6 C        3.645     0.027    20.451     6.499
    12   6 C        2.914    -0.074    29.859     8.960
    13   6 C        2.922    -0.053    29.313     8.879
    14   6 C        3.813    -0.064    21.722     6.634
    15   6 C        3.802    -0.070    21.830     6.652
    16   6 C        2.844     0.008    27.828     8.645
    17   7 N        2.729     0.010    21.078     6.819
    18   6 C        3.754    -0.017    20.937     6.525
    19   6 C        3.804    -0.066    21.762     6.641
    20   6 C        3.075    -0.008    28.131     8.696
    21   6 C        3.018    -0.069    29.683     8.937
    22   6 C        3.076    -0.061    29.428     8.894
    23   6 C        2.724     0.291    22.072     7.691
    24   8 O        1.706    -0.208    17.453     5.640
    25   6 C        3.637     0.017    20.655     6.538
    26   6 C        3.012    -0.051    29.241     8.870
    27   8 O        1.706    -0.216    17.587     5.662
    28   6 C        3.638     0.020    20.597     6.528
    29   6 C        3.035    -0.053    29.277     8.875
    30   6 C        3.699    -0.069    21.994     6.707
    31   6 C        3.853    -0.007    20.670     6.466
    32   6 C        3.756    -0.118    22.815     6.811
    33   6 C        3.755    -0.119    22.840     6.814
    34   1 H        0.926     0.051     2.303     2.373
    35   1 H        0.924     0.054     2.276     2.360
    36   1 H        0.925     0.081     1.971     2.195
    37   1 H        0.924     0.046     2.368     2.406
    38   1 H        0.924     0.055     2.262     2.352
    39   1 H        0.925     0.081     1.971     2.195
    40   1 H        0.924     0.048     2.345     2.395
    41   1 H        0.926     0.052     2.298     2.371
    42   1 H        0.926     0.039     2.465     2.455
    43   1 H        0.925     0.060     2.194     2.316
    44   1 H        0.924     0.054     2.271     2.357
    45   1 H        0.925     0.067     2.120     2.277
    46   1 H        0.923     0.080     1.984     2.203
    47   1 H        0.922     0.004     2.989     2.704
    48   1 H        0.926     0.070     2.085     2.258
    49   1 H        0.924     0.068     2.109     2.271
    50   1 H        0.924     0.066     2.126     2.280
    51   1 H        0.924     0.054     2.272     2.357
    52   1 H        0.924     0.056     2.243     2.342
    53   1 H        0.926     0.018     2.760     2.598
    54   1 H        0.927     0.037     2.486     2.466
    55   1 H        0.924     0.069     2.098     2.265
    56   1 H        0.924     0.076     2.019     2.222
    57   1 H        0.925     0.092     1.859     2.132
    58   1 H        0.924     0.089     1.888     2.149
    59   1 H        0.924     0.068     2.109     2.271
    60   1 H        0.924     0.065     2.141     2.288
    61   1 H        0.926     0.034     2.531     2.488
    62   1 H        0.924     0.076     2.016     2.220
    63   1 H        0.924     0.078     2.001     2.212
    64   1 H        0.925     0.082     1.963     2.191
    65   1 H        0.924     0.037     2.494     2.470
    66   1 H        0.925     0.067     2.117     2.275
    67   1 H        0.925     0.035     2.516     2.481
    68   1 H        0.925     0.051     2.308     2.376
    69   1 H        0.925     0.062     2.172     2.305
    70   1 H        0.925     0.035     2.521     2.483
    71   1 H        0.925     0.054     2.268     2.355
    72   1 H        0.860     0.155     1.366     1.831

Wiberg/Mayer (AO) data.
largest (>0.10) Wiberg bond orders for each atom

     #   Z sym  total        # sym  WBO       # sym  WBO       # sym  WBO
 ---------------------------------------------------------------------------
     1   7 N    3.038 --     2 C    1.955    72 H    0.942
     2   6 C    3.930 --     1 N    1.955     3 C    0.994    47 H    0.903
     3   6 C    3.976 --     2 C    0.994     4 C    0.971    14 C    0.956
                            31 C    0.943
     4   6 C    3.950 --    13 C    1.415     5 C    1.368     3 C    0.971
     5   6 C    3.963 --     6 C    1.401     4 C    1.368    34 H    0.958
     6   6 C    3.906 --     5 C    1.401     9 C    1.223     7 O    1.098
     7   8 O    2.254 --     6 C    1.098     8 C    0.978
     8   6 C    3.933 --     7 O    0.978    36 H    0.977    37 H    0.974
                            35 H    0.974
     9   6 C    3.902 --    12 C    1.392     6 C    1.223    10 O    1.100
    10   8 O    2.252 --     9 C    1.100    11 C    0.978
    11   6 C    3.932 --    10 O    0.978    39 H    0.977    40 H    0.974
                            38 H    0.974
    12   6 C    3.963 --    13 C    1.404     9 C    1.392    41 H    0.964
    13   6 C    3.955 --     4 C    1.415    12 C    1.404    42 H    0.962
    14   6 C    3.973 --    15 C    0.982    44 H    0.972    43 H    0.968
                             3 C    0.956
    15   6 C    3.987 --    16 C    1.060    14 C    0.982    45 H    0.960
                            46 H    0.927
    16   6 C    3.596 --    17 N    1.410    15 C    1.060    48 H    0.957
    17   7 N    3.480 --    16 C    1.410    30 C    0.999    18 C    0.983
    18   6 C    3.956 --    17 N    0.983    19 C    0.983    50 H    0.967
                            49 H    0.964
    19   6 C    3.973 --    20 C    1.013    18 C    0.983    52 H    0.961
                            51 H    0.960
    20   6 C    3.901 --    21 C    1.536    29 C    1.213    19 C    1.013
    21   6 C    3.872 --    20 C    1.536    22 C    1.176    53 H    0.969
    22   6 C    3.911 --    23 C    1.352    21 C    1.176    26 C    1.173
    23   6 C    3.842 --    22 C    1.352    24 O    1.160    27 O    1.142
    24   8 O    2.332 --    23 C    1.160    25 C    0.954
    25   6 C    3.908 --    55 H    0.974    57 H    0.973    56 H    0.969
                            24 O    0.954
    26   6 C    3.879 --    29 C    1.579    22 C    1.173    54 H    0.969
    27   8 O    2.312 --    23 C    1.142    28 C    0.957
    28   6 C    3.914 --    60 H    0.975    58 H    0.973    59 H    0.972
                            27 O    0.957
    29   6 C    3.904 --    26 C    1.579    20 C    1.213    61 H    0.973
    30   6 C    3.958 --    17 N    0.999    64 H    0.977    62 H    0.967
                            63 H    0.963
    31   6 C    3.973 --    33 C    1.009    32 C    1.008    65 H    0.961
                             3 C    0.943
    32   6 C    3.980 --    31 C    1.008    67 H    0.982    68 H    0.982
                            66 H    0.975
    33   6 C    3.982 --    31 C    1.009    70 H    0.983    71 H    0.980
                            69 H    0.976
    34   1 H    0.996 --     5 C    0.958
    35   1 H    0.993 --     8 C    0.974
    36   1 H    0.993 --     8 C    0.977
    37   1 H    0.994 --     8 C    0.974
    38   1 H    0.993 --    11 C    0.974
    39   1 H    0.993 --    11 C    0.977
    40   1 H    0.993 --    11 C    0.974
    41   1 H    0.996 --    12 C    0.964
    42   1 H    0.998 --    13 C    0.962
    43   1 H    0.995 --    14 C    0.968
    44   1 H    0.996 --    14 C    0.972
    45   1 H    0.995 --    15 C    0.960
    46   1 H    0.970 --    15 C    0.927
    47   1 H    0.987 --     2 C    0.903
    48   1 H    0.995 --    16 C    0.957
    49   1 H    0.991 --    18 C    0.964
    50   1 H    0.994 --    18 C    0.967
    51   1 H    0.990 --    19 C    0.960
    52   1 H    0.990 --    19 C    0.961
    53   1 H    0.999 --    21 C    0.969
    54   1 H    0.997 --    26 C    0.969
    55   1 H    0.994 --    25 C    0.974
    56   1 H    0.992 --    25 C    0.969
    57   1 H    0.990 --    25 C    0.973
    58   1 H    0.990 --    28 C    0.973
    59   1 H    0.993 --    28 C    0.972
    60   1 H    0.995 --    28 C    0.975
    61   1 H    0.998 --    29 C    0.973
    62   1 H    0.985 --    30 C    0.967
    63   1 H    0.986 --    30 C    0.963
    64   1 H    0.993 --    30 C    0.977
    65   1 H    0.993 --    31 C    0.961
    66   1 H    0.991 --    32 C    0.975
    67   1 H    0.997 --    32 C    0.982
    68   1 H    0.994 --    32 C    0.982
    69   1 H    0.993 --    33 C    0.976
    70   1 H    0.997 --    33 C    0.983
    71   1 H    0.994 --    33 C    0.980
    72   1 H    0.971 --     1 N    0.942
 ---------------------------------------------------------------------------

molecular dipole:
                 x           y           z       tot (Debye)
 q only:        1.210      -0.112      -0.669
   full:        1.446      -0.239      -0.882       4.348

           -------------------------------------------------
          | TOTAL ENERGY              -99.366989912909 Eh   |
          | GRADIENT NORM               0.004670516245 Eh/α |
          | HOMO-LUMO GAP               1.710762000091 eV   |
           -------------------------------------------------

 * finished run on 2024/04/06 at 11:17:04.150
