   * xtb version 6.6.1 (8d0f1dd) compiled by 'conda@1efc2f54142f' on 2023-08-01
          program call               : xtb xtbopt.xyz --opt crude --input .xc2 --gfn2

   ID    Z sym.   atoms
    1    6 C      1, 3, 5-7, 10, 11, 14
    2    7 N      2, 4, 9, 13
    3    8 O      8, 12
    4    1 H      15-25
########################################################################
[WARNING] Please study the warnings concerning your input carefully
-1- readin_getIntValue: could not parse ''
########################################################################

          :  Hamiltonian                  GFN2-xTB          :
 * total energy  :   -42.0880131 Eh     change       -0.1035261E-10 Eh
 * total energy  :   -42.0912708 Eh     change       -0.3257721E-02 Eh
 * total energy  :   -42.0939619 Eh     change       -0.2691115E-02 Eh
 * total energy  :   -42.0943815 Eh     change       -0.4196130E-03 Eh
   *** GEOMETRY OPTIMIZATION CONVERGED AFTER 4 ITERATIONS ***

 final structure:
================
25
 xtb: 6.6.1 (8d0f1dd)
C            3.15225389641884        1.41586737761266        0.01903934622126
N            2.34792897675550        0.27680185561074       -0.00503522750822
C            2.58015349786376       -2.30253218293187       -0.01437347808178
N            1.29651010335251       -2.22787803694822       -0.01006675844605
C            0.46950763157483       -1.10917216047555       -0.00472209388711
C            1.06120728184614        0.17005801701020        0.00213463360970
C            0.13370586853288        1.35619204938216        0.00656533539309
O            0.54517807978565        2.49252201350131        0.01563806242803
N           -1.20092872633214        1.05311046263485       -0.00635906351418
C           -2.16183631922128        2.15111035790464       -0.00919791600508
C           -1.76661963866134       -0.20839277742878       -0.00655675790493
O           -2.95448028154007       -0.37773658800428       -0.00884887615549
N           -0.87430775335201       -1.29067047631885       -0.00329354573335
C           -1.46784277191703       -2.61600585722621        0.00298938760191
H            3.71066423817480        1.44963736120340        0.96069115689981
H            3.88275252833729        1.36247156678706       -0.79353912801740
H            2.55495071311637        2.33076830139354       -0.07521033591026
H            3.21631163461811       -1.42053114348024       -0.00919536708084
H           -1.61683771810872        3.09130270673106       -0.00265216393793
H           -2.78961321240678        2.08231830553194       -0.89734602709876
H           -2.80159534528874        2.07713556276690        0.86996758071613
H           -1.18868339871411       -3.16772030943393        0.90233044069943
H           -1.19986511644501       -3.17227508701598       -0.89704193253875
H           -2.55074702874504       -2.47996776311690        0.00884836041645
H            0.78266437445565       -3.11817501408972       -0.01359401426572

          :  Hamiltonian                  GFN2-xTB          :
         :: total energy             -42.094381521644 Eh    ::
         :: gradient norm              0.009501748313 Eh/a0 ::
         :: HOMO-LUMO gap              0.132450287207 eV    ::
         :: SCC energy               -42.608190367130 Eh    ::
         :: -> dispersion             -0.022355930069 Eh    ::
         :: repulsion energy           0.513678038868 Eh    ::

    * Orbital Energies and Occupations

         #    Occupation            Energy/Eh            Energy/eV
      -------------------------------------------------------------
         1        2.0000           -0.8955732             -24.3698
       ...           ...                  ...                  ...
        25        1.9999           -0.6782983             -18.4574
        26        1.9999           -0.6768132             -18.4170
        27        1.9995           -0.6469128             -17.6034
        28        1.9993           -0.6424048             -17.4807
        29        1.9991           -0.6391192             -17.3913
        30        1.9987           -0.6326320             -17.2148
        31        1.9970           -0.6197757             -16.8650
        32        1.9946           -0.6103139             -16.6075
        33        1.9920           -0.6040161             -16.4361
        34        1.9855           -0.5946150             -16.1803
        35        1.9671           -0.5814314             -15.8216
        36        1.8587           -0.5574689             -15.1695
        37        1.1571           -0.5216823             -14.1957 (HOMO)
        38        1.0047           -0.5168148             -14.0632 (LUMO)
        39        0.0449           -0.4568946             -12.4327
        40        0.0017           -0.4046138             -11.0101
        41        0.0005           -0.3858933             -10.5007
        42        0.0000           -0.3006035              -8.1798
        43                         -0.2085474              -5.6749
        44                         -0.1695742              -4.6143
        45                         -0.1484147              -4.0386
        46                         -0.1001726              -2.7258
        47                         -0.0824114              -2.2425
        48                         -0.0437138              -1.1895
       ...                                ...                  ...
        67                          0.5395088              14.6808
      -------------------------------------------------------------
                  HL-Gap            0.0048675 Eh            0.1325 eV

     #   Z          covCN         q      C6AA      α(0)
     1   6 C        3.691    -0.055    21.761     6.675
     2   7 N        1.838    -0.119    24.367     7.315
     3   6 C        1.847    -0.068    33.001     9.280
     4   7 N        2.688     0.011    21.060     6.816
     5   6 C        2.854     0.088    26.043     8.364
     6   6 C        2.892     0.049    26.904     8.504
     7   6 C        2.767     0.270    22.445     7.759
     8   8 O        0.858    -0.325    20.243     6.032
     9   7 N        2.738    -0.067    22.536     7.051
    10   6 C        3.710    -0.063    21.844     6.679
    11   6 C        2.726     0.318    21.599     7.608
    12   8 O        0.860    -0.345    20.619     6.088
    13   7 N        2.740    -0.042    22.058     6.975
    14   6 C        3.700    -0.080    22.200     6.738
    15   1 H        0.924     0.120     1.612     1.985
    16   1 H        0.924     0.118     1.633     1.999
    17   1 H        0.924     0.136     1.487     1.907
    18   1 H        0.925     0.157     1.347     1.815
    19   1 H        0.925     0.115     1.655     2.012
    20   1 H        0.925     0.107     1.724     2.053
    21   1 H        0.925     0.107     1.723     2.053
    22   1 H        0.924     0.092     1.855     2.130
    23   1 H        0.924     0.093     1.854     2.129
    24   1 H        0.924     0.137     1.479     1.902
    25   1 H        0.859     0.248     0.892     1.480

Wiberg/Mayer (AO) data.
largest (>0.10) Wiberg bond orders for each atom

     #   Z sym  total        # sym  WBO       # sym  WBO       # sym  WBO
 ---------------------------------------------------------------------------
     1   6 C    3.873 --     2 N    1.095    16 H    0.922    15 H    0.912
                            17 H    0.884
     2   7 N    2.902 --     6 C    1.535     1 C    1.095     3 C    0.109
     3   6 C    2.732 --     4 N    1.615    18 H    0.858     2 N    0.109
     4   7 N    3.668 --     3 C    1.615     5 C    1.091    25 H    0.874
     5   6 C    3.699 --     6 C    1.222    13 N    1.215     4 N    1.091
     6   6 C    3.917 --     2 N    1.535     5 C    1.222     7 C    0.938
     7   6 C    3.899 --     8 O    1.697     9 N    1.164     6 C    0.938
     8   8 O    2.038 --     7 C    1.697     9 N    0.140
     9   7 N    3.552 --     7 C    1.164    11 C    1.102    10 C    0.961
                             8 O    0.140    12 O    0.120
    10   6 C    3.892 --    19 H    0.967     9 N    0.961    21 H    0.959
                            20 H    0.959
    11   6 C    3.940 --    12 O    1.699     9 N    1.102    13 N    1.053
    12   8 O    2.013 --    11 C    1.699     9 N    0.120    13 N    0.110
    13   7 N    3.483 --     5 C    1.215    11 C    1.053    14 C    0.977
                            12 O    0.110
    14   6 C    3.914 --    13 N    0.977    22 H    0.961    23 H    0.961
                            24 H    0.955
    15   1 H    0.948 --     1 C    0.912
    16   1 H    0.953 --     1 C    0.922
    17   1 H    0.928 --     1 C    0.884
    18   1 H    0.937 --     3 C    0.858
    19   1 H    0.984 --    10 C    0.967
    20   1 H    0.979 --    10 C    0.959
    21   1 H    0.979 --    10 C    0.959
    22   1 H    0.982 --    14 C    0.961
    23   1 H    0.981 --    14 C    0.961
    24   1 H    0.980 --    14 C    0.955
    25   1 H    0.917 --     4 N    0.874
 ---------------------------------------------------------------------------

molecular dipole:
                 x           y           z       tot (Debye)
 q only:        1.435      -1.628       0.008
   full:        1.288      -1.506       0.018       5.037

           -------------------------------------------------
          | TOTAL ENERGY              -42.094381521644 Eh   |
          | GRADIENT NORM               0.009501748313 Eh/α |
          | HOMO-LUMO GAP               0.132450287207 eV   |
           -------------------------------------------------

 * finished run on 2024/06/05 at 19:57:55.571
