   * xtb version 6.6.1 (8d0f1dd) compiled by 'conda@1efc2f54142f' on 2023-08-01
          program call               : xtb xtbopt.xyz --opt crude --input .xc2 --gfn2

   ID    Z sym.   atoms
    1    6 C      1, 3, 5-7, 10, 11, 14
    2    7 N      2, 4, 9, 13
    3    8 O      8, 12
    4    1 H      15-25

          :  Hamiltonian                  GFN2-xTB          :
 * total energy  :   -42.0772895 Eh     change       -0.1499245E-11 Eh
   *** GEOMETRY OPTIMIZATION CONVERGED AFTER 1 ITERATIONS ***

 final structure:
================
25
 xtb: 6.6.1 (8d0f1dd)
C            3.46755902455203        2.26385329939169        0.21434791825213
N            3.86150085897785        1.37499219790538       -0.55652266954040
C            1.97284903483783       -1.35257352168363        0.13713744727005
N            1.12671963901686       -2.48124515954052        0.09233247088198
C            0.02924723826515       -1.64503026645047        0.07581625725786
C            0.87530781633144       -0.47993306178460        0.11039336593588
C            0.32432959154084        0.83225901886583        0.08466138649623
O            0.89848478561498        1.89874197540940        0.10492521563934
N           -1.09224982169588        0.75864882843026        0.03219670190048
C           -1.81839744459804        2.02247470046064        0.00390954341119
C           -1.90385091470739       -0.34768035146975       -0.00523476280295
O           -3.09965144786868       -0.28720895674922       -0.05647510901946
N           -1.27504936668123       -1.65501071090359        0.01963188561364
C           -2.11541891232791       -2.82862046025743       -0.03418760071168
H            3.35014109076619        2.03104199444230        1.26566531385214
H            3.99921748825607        1.54924872467314       -1.54636448341877
H            3.24184339371015        3.29742162503909       -0.06362080726364
H            3.03995368992938       -1.30958422322357        0.15909697929878
H           -1.09133471941634        2.82964507232058        0.04023965578248
H           -2.41294676889284        2.09030833072699       -0.90730760223393
H           -2.49274678082879        2.08301556815457        0.85810454189034
H           -1.92901895262803       -3.46576908765830        0.82913328777039
H           -1.91979839624772       -3.38983833896229       -0.94791803360657
H           -3.15379030624038       -2.49756149241096       -0.02795169902947
H            1.27753169442828       -3.47335716312057        0.14916241427152

          :  Hamiltonian                  GFN2-xTB          :
         :: total energy             -42.077289527914 Eh    ::
         :: gradient norm              0.003110616564 Eh/a0 ::
         :: HOMO-LUMO gap              1.067860251726 eV    ::
         :: SCC energy               -42.616785579237 Eh    ::
         :: -> dispersion             -0.020613112891 Eh    ::
         :: repulsion energy           0.539387086464 Eh    ::

    * Orbital Energies and Occupations

         #    Occupation            Energy/Eh            Energy/eV
      -------------------------------------------------------------
         1        2.0000           -0.8858973             -24.1065
       ...           ...                  ...                  ...
        25        1.9999           -0.6596948             -17.9512
        26        1.9996           -0.6408656             -17.4388
        27        1.9993           -0.6333195             -17.2335
        28        1.9992           -0.6303548             -17.1528
        29        1.9988           -0.6236452             -16.9702
        30        1.9987           -0.6228506             -16.9486
        31        1.9968           -0.6081842             -16.5495
        32        1.9955           -0.6031156             -16.4116
        33        1.9885           -0.5881678             -16.0049
        34        1.9561           -0.5666513             -15.4194
        35        1.9492           -0.5642729             -15.3546
        36        1.8765           -0.5496024             -14.9554
        37        1.6588           -0.5315578             -14.4644 (HOMO)
        38        0.5793           -0.4923146             -13.3966 (LUMO)
        39        0.0022           -0.3990182             -10.8578
        40        0.0013           -0.3905247             -10.6267
        41        0.0004           -0.3719087             -10.1202
        42        0.0000           -0.2751981              -7.4885
        43                         -0.2235220              -6.0823
        44                         -0.1832027              -4.9852
        45                         -0.1667017              -4.5362
        46                         -0.1035659              -2.8182
        47                         -0.0710426              -1.9332
        48                         -0.0416097              -1.1323
       ...                                ...                  ...
        67                          0.6610119              17.9870
      -------------------------------------------------------------
                  HL-Gap            0.0392431 Eh            1.0679 eV

     #   Z          covCN         q      C6AA      α(0)
     1   6 C        2.760     0.065    26.524     8.434
     2   7 N        1.770    -0.178    25.637     7.497
     3   6 C        3.375     0.053    23.622     7.585
     4   7 N        2.998    -0.103    23.250     7.161
     5   6 C        3.411     0.144    21.199     7.080
     6   6 C        3.280    -0.068    28.163     8.540
     7   6 C        2.759     0.279    22.272     7.728
     8   8 O        0.857    -0.367    21.041     6.150
     9   7 N        2.748    -0.079    22.766     7.087
    10   6 C        3.713    -0.062    21.833     6.677
    11   6 C        2.743     0.317    21.608     7.611
    12   8 O        0.859    -0.334    20.396     6.055
    13   7 N        2.731    -0.012    21.481     6.884
    14   6 C        3.694    -0.076    22.132     6.731
    15   1 H        0.925     0.123     1.593     1.974
    16   1 H        0.860     0.204     1.085     1.632
    17   1 H        0.924     0.115     1.651     2.010
    18   1 H        0.927     0.123     1.592     1.973
    19   1 H        0.925     0.114     1.661     2.016
    20   1 H        0.925     0.101     1.780     2.086
    21   1 H        0.925     0.101     1.775     2.083
    22   1 H        0.925     0.100     1.784     2.089
    23   1 H        0.925     0.102     1.771     2.081
    24   1 H        0.925     0.131     1.527     1.933
    25   1 H        0.860     0.207     1.071     1.621

Wiberg/Mayer (AO) data.
largest (>0.10) Wiberg bond orders for each atom

     #   Z sym  total        # sym  WBO       # sym  WBO       # sym  WBO
 ---------------------------------------------------------------------------
     1   6 C    3.875 --     2 N    2.033    15 H    0.927    17 H    0.894
     2   7 N    2.968 --     1 C    2.033    16 H    0.912
     3   6 C    3.558 --     6 C    1.360     4 N    1.108    18 H    0.957
     4   7 N    3.424 --     5 C    1.146     3 C    1.108    25 H    0.928
     5   6 C    3.745 --    13 N    1.390     4 N    1.146     6 C    1.082
     6   6 C    3.823 --     3 C    1.360     7 C    1.131     5 C    1.082
     7   6 C    3.938 --     8 O    1.665     6 C    1.131     9 N    1.047
     8   8 O    1.995 --     7 C    1.665     9 N    0.116
     9   7 N    3.524 --    11 C    1.170     7 C    1.047    10 C    0.971
                            12 O    0.143     8 O    0.116
    10   6 C    3.900 --     9 N    0.971    19 H    0.965    21 H    0.959
                            20 H    0.959
    11   6 C    3.932 --    12 O    1.719     9 N    1.170    13 N    0.954
    12   8 O    2.042 --    11 C    1.719     9 N    0.143
    13   7 N    3.558 --     5 C    1.390    14 C    0.975    11 C    0.954
    14   6 C    3.913 --    13 N    0.975    24 H    0.962    22 H    0.961
                            23 H    0.958
    15   1 H    0.948 --     1 C    0.927
    16   1 H    0.934 --     2 N    0.912
    17   1 H    0.904 --     1 C    0.894
    18   1 H    0.984 --     3 C    0.957
    19   1 H    0.984 --    10 C    0.965
    20   1 H    0.977 --    10 C    0.959
    21   1 H    0.977 --    10 C    0.959
    22   1 H    0.982 --    14 C    0.961
    23   1 H    0.981 --    14 C    0.958
    24   1 H    0.982 --    14 C    0.962
    25   1 H    0.955 --     4 N    0.928
 ---------------------------------------------------------------------------

molecular dipole:
                 x           y           z       tot (Debye)
 q only:        1.609      -1.433      -0.034
   full:        1.731      -1.691      -0.093       6.155

           -------------------------------------------------
          | TOTAL ENERGY              -42.077289527914 Eh   |
          | GRADIENT NORM               0.003110616564 Eh/α |
          | HOMO-LUMO GAP               1.067860251726 eV   |
           -------------------------------------------------

 * finished run on 2024/06/05 at 19:58:16.161
