   * xtb version 6.6.1 (8d0f1dd) compiled by 'conda@1efc2f54142f' on 2023-08-01
          program call               : xtb struc.xyz --opt loose --input .xc1 --gfn2

   ID    Z sym.   atoms
    1    7 N      1, 17
    2    6 C      2-6, 8, 9, 11-16, 18-23, 25, 26, 28-33
    3    8 O      7, 10, 24, 27
    4    1 H      34-72
constraining bond 17 64 to    4.0600000 Å, actual value:    2.0755639 Å

          :  Hamiltonian                  GFN2-xTB          :
 * total energy  :   -98.7009908 Eh     change       -0.4035485E-08 Eh
 * total energy  :   -98.9237422 Eh     change       -0.2227515E+00 Eh
 * total energy  :   -99.0620251 Eh     change       -0.1382829E+00 Eh
 * total energy  :   -99.1399889 Eh     change       -0.7796383E-01 Eh
 * total energy  :   -99.1850224 Eh     change       -0.4503348E-01 Eh
 * total energy  :   -99.2010617 Eh     change       -0.1603925E-01 Eh
 * total energy  :   -99.2071186 Eh     change       -0.6056941E-02 Eh
 * total energy  :   -99.2139058 Eh     change       -0.6787144E-02 Eh
 * total energy  :   -99.2256969 Eh     change       -0.1179117E-01 Eh
 * total energy  :   -99.2352477 Eh     change       -0.9550766E-02 Eh
 * total energy  :   -99.3454054 Eh     change       -0.2188506E-02 Eh
 * total energy  :   -99.3462683 Eh     change       -0.8628019E-03 Eh
 * total energy  :   -99.3470664 Eh     change       -0.7981950E-03 Eh
 * total energy  :   -99.3473711 Eh     change       -0.3046358E-03 Eh
 * total energy  :   -99.3476235 Eh     change       -0.2524166E-03 Eh
 * total energy  :   -99.3477643 Eh     change       -0.1408039E-03 Eh
 * total energy  :   -99.3478511 Eh     change       -0.8675117E-04 Eh
 * total energy  :   -99.3479072 Eh     change       -0.5611491E-04 Eh
 * total energy  :   -99.3479472 Eh     change       -0.4005945E-04 Eh
   *** GEOMETRY OPTIMIZATION CONVERGED AFTER 53 ITERATIONS ***

 final structure:
================
72
 xtb: 6.6.1 (8d0f1dd)
N           -1.81481880907511        2.97188387974223        2.17526522536588
C           -1.75402270634386        2.22068549898052        1.17773241192693
C           -2.90812304595639        1.94760764603102        0.25078029413354
C           -3.29930572542210        0.47917230826878        0.33262746370763
C           -4.25446241281329       -0.00961751221340       -0.59380170076188
C           -4.69078256882113       -1.33117520746969       -0.57146901548539
O           -5.61418482595875       -1.85359260779329       -1.41342190368816
C           -6.25851553934979       -1.00548517011254       -2.33685130379409
C           -4.16854184353504       -2.22715939800124        0.36807796797451
O           -4.62808194255426       -3.48299906956965        0.32967169083678
C           -4.20316331930133       -4.42359184377120        1.28694701703194
C           -3.14055688932282       -1.79472381429909        1.35313179644257
C           -2.77470389843085       -0.35596199836795        1.26086601380263
C           -2.39275550599870        2.27109442100984       -1.17836145600715
C           -1.50216068012676        1.18920062138208       -1.81733963565921
C           -0.15745765822742        1.07480492402682       -1.19366917223796
N            0.41027099709991       -0.04605041508085       -0.76474982436113
C            1.78964502515766        0.06034205788700       -0.29474500293102
C            2.77500473777302       -0.21165224677324       -1.44134611520762
C            4.19218929883767       -0.04411710125326       -0.96704737829829
C            4.86185138800687        1.15440096360225       -1.14984375997719
C            6.16412971513808        1.31633576024493       -0.70240631302458
C            6.82153424852514        0.28047064234328       -0.05481809220815
O            8.08186434714472        0.32169137394108        0.41524133359545
C            8.84245460963270        1.49493924671428        0.24203509780321
C            6.13920110702244       -0.95180703676690        0.14535032818745
O            6.85185818083298       -1.90169812832648        0.78353936403913
C            6.27475008662232       -3.16604146466258        1.00492509916341
C            4.83859653290218       -1.09039291394126       -0.31247507468513
C           -0.12162113350093       -1.26119316617421       -0.74969120258547
C           -4.16611439006813        2.80636706524937        0.57257005391676
C           -4.74368231865304        2.46325711761123        1.94397580756246
C           -3.90612324224132        4.30748017918010        0.48242057197485
H           -4.66640006754725        0.66505615064786       -1.32237512746349
H           -6.78335253116178       -0.18837396213088       -1.83333175366016
H           -6.98240396851283       -1.63481112165540       -2.85055428884094
H           -5.55385502474437       -0.59684869092621       -3.06840298402393
H           -4.44026013473950       -4.10055872599304        2.30537389539925
H           -4.75020962647962       -5.33740083408734        1.06384116607417
H           -3.12804180497231       -4.61874429172330        1.21258739737818
H           -3.48347597183307       -2.01522274175130        2.37859469125474
H           -2.07328075104451       -0.00289879444007        1.99940932426563
H           -3.25169590727910        2.42391852423981       -1.83178027405411
H           -1.83785227488348        3.20947676363290       -1.14346359560007
H           -2.02464162706153        0.23500914883917       -1.80417928371471
H           -1.36695712999191        1.47635301220153       -2.86735116999008
H           -0.83223441079239        1.71424087586679        0.84789154604934
H            0.45414521305772        1.96250060568479       -1.17945879606903
H            1.95144776365237       -0.66119972246721        0.50831998622253
H            1.96499708297310        1.06216058993097        0.10302809774882
H            2.57299843793688        0.48676433421692       -2.25538404849837
H            2.61774793917856       -1.22569033229533       -1.81375205086641
H            4.37527600861517        1.97286233016119       -1.65807463363611
H            6.66244270511740        2.25702682745427       -0.86930192869666
H            8.38217272584771        2.34952835774500        0.74713306278016
H            8.98222755263686        1.72843573993593       -0.81767506565811
H            9.80904781407356        1.28547284985327        0.69596004266161
H            7.03733979798748       -3.74895933516667        1.51794348626355
H            5.38576504563354       -3.09623868764538        1.64013678115006
H            6.01506521075536       -3.65927988476886        0.06308033874829
H            4.31685251467243       -2.02497784158241       -0.17774476306913
H            0.45573874180189       -2.07576204464739       -0.36435700585224
H           -1.09910289703952       -1.44507927836120       -1.14325216548268
H           -2.23137498875614       -2.40690528738300        1.22516960723724
H           -4.92078200604105        2.55286672398233       -0.18062769992336
H           -4.03580498033300        2.72942640165246        2.72211379360970
H           -4.97240855332742        1.40308569290451        2.02066195531342
H           -5.66089028422232        3.02356741003126        2.10376591999920
H           -3.14757127890037        4.60267566253240        1.20046024937612
H           -3.59093627814634        4.60419958385997       -0.51430851817011
H           -4.82283944448657        4.84266385784341        0.71617882458470
H           -0.96454883364609        3.11332504468166        2.71186924320761

          :  Hamiltonian                  GFN2-xTB          :
         :: total energy             -99.347947233106 Eh    ::
         :: gradient norm              0.003094332186 Eh/a0 ::
         :: HOMO-LUMO gap              0.896817431865 eV    ::
         :: SCC energy              -100.716793696916 Eh    ::
         :: -> dispersion             -0.075726558332 Eh    ::
         :: repulsion energy           1.367536139658 Eh    ::

    * Orbital Energies and Occupations

         #    Occupation            Energy/Eh            Energy/eV
      -------------------------------------------------------------
         1        2.0000           -0.8325372             -22.6545
       ...           ...                  ...                  ...
        78        1.9985           -0.5299041             -14.4194
        79        1.9984           -0.5292073             -14.4005
        80        1.9982           -0.5268238             -14.3356
        81        1.9981           -0.5259455             -14.3117
        82        1.9968           -0.5177966             -14.0900
        83        1.9955           -0.5123185             -13.9409
        84        1.9951           -0.5110575             -13.9066
        85        1.9944           -0.5087705             -13.8443
        86        1.9769           -0.4863136             -13.2333
        87        1.9560           -0.4759242             -12.9506
        88        1.9371           -0.4701139             -12.7924
        89        1.8365           -0.4541489             -12.3580
        90        1.6101           -0.4383030             -11.9268 (HOMO)
        91        0.6800           -0.4053456             -11.0300 (LUMO)
        92        0.0157           -0.3392457              -9.2313
        93        0.0117           -0.3344927              -9.1020
        94        0.0042           -0.3181295              -8.6567
        95        0.0025           -0.3099968              -8.4354
        96        0.0021           -0.3072188              -8.3598
        97        0.0000           -0.2352990              -6.4028
        98        0.0000           -0.1850699              -5.0360
        99                         -0.1151611              -3.1337
       100                         -0.0872666              -2.3746
       101                         -0.0709441              -1.9305
       ...                                ...                  ...
       171                          0.5791560              15.7596
      -------------------------------------------------------------
                  HL-Gap            0.0329574 Eh            0.8968 eV

     #   Z          covCN         q      C6AA      α(0)
     1   7 N        1.774    -0.271    27.844     7.814
     2   6 C        2.827     0.099    25.797     8.323
     3   6 C        3.908     0.006    20.426     6.424
     4   6 C        2.961     0.016    27.649     8.625
     5   6 C        2.919    -0.079    29.982     8.979
     6   6 C        2.847     0.128    25.196     8.227
     7   8 O        1.706    -0.240    17.983     5.725
     8   6 C        3.643     0.027    20.454     6.501
     9   6 C        2.852     0.125    25.254     8.237
    10   8 O        1.706    -0.195    17.260     5.609
    11   6 C        3.644     0.020    20.584     6.522
    12   6 C        3.808    -0.070    21.836     6.652
    13   6 C        2.908    -0.060    29.487     8.904
    14   6 C        3.811    -0.064    21.713     6.633
    15   6 C        3.801    -0.064    21.725     6.636
    16   6 C        2.862    -0.041    29.020     8.830
    17   7 N        2.730     0.088    19.720     6.595
    18   6 C        3.782    -0.018    20.919     6.515
    19   6 C        3.808    -0.068    21.802     6.647
    20   6 C        2.969     0.001    28.005     8.680
    21   6 C        2.922    -0.048    29.187     8.860
    22   6 C        2.914    -0.067    29.673     8.933
    23   6 C        2.865     0.134    25.078     8.209
    24   8 O        1.706    -0.222    17.678     5.677
    25   6 C        3.645     0.025    20.489     6.505
    26   6 C        2.863     0.133    25.090     8.210
    27   8 O        1.706    -0.225    17.729     5.685
    28   6 C        3.645     0.027    20.450     6.500
    29   6 C        2.919    -0.079    29.979     8.979
    30   6 C        2.810    -0.111    30.783     9.090
    31   6 C        3.853    -0.008    20.686     6.469
    32   6 C        3.756    -0.119    22.831     6.813
    33   6 C        3.755    -0.119    22.834     6.814
    34   1 H        0.926     0.061     2.184     2.311
    35   1 H        0.924     0.054     2.273     2.358
    36   1 H        0.925     0.082     1.958     2.188
    37   1 H        0.924     0.049     2.327     2.386
    38   1 H        0.924     0.063     2.165     2.301
    39   1 H        0.925     0.092     1.855     2.130
    40   1 H        0.924     0.059     2.210     2.325
    41   1 H        0.923     0.086     1.915     2.164
    42   1 H        0.926     0.045     2.388     2.416
    43   1 H        0.925     0.056     2.249     2.345
    44   1 H        0.924     0.052     2.293     2.368
    45   1 H        0.925     0.054     2.273     2.357
    46   1 H        0.924     0.065     2.145     2.290
    47   1 H        0.923     0.010     2.890     2.659
    48   1 H        0.926     0.051     2.306     2.375
    49   1 H        0.924     0.070     2.086     2.259
    50   1 H        0.924     0.066     2.131     2.283
    51   1 H        0.924     0.057     2.236     2.338
    52   1 H        0.924     0.058     2.219     2.330
    53   1 H        0.926     0.047     2.352     2.398
    54   1 H        0.926     0.059     2.211     2.325
    55   1 H        0.924     0.054     2.266     2.354
    56   1 H        0.924     0.056     2.244     2.343
    57   1 H        0.925     0.082     1.957     2.188
    58   1 H        0.925     0.081     1.964     2.192
    59   1 H        0.924     0.048     2.345     2.395
    60   1 H        0.924     0.053     2.287     2.365
    61   1 H        0.926     0.047     2.352     2.398
    62   1 H        0.927     0.052     2.297     2.370
    63   1 H        0.927     0.052     2.294     2.368
    64   1 H        0.923     0.081     1.965     2.192
    65   1 H        0.924     0.036     2.498     2.471
    66   1 H        0.925     0.069     2.101     2.267
    67   1 H        0.925     0.031     2.579     2.511
    68   1 H        0.925     0.051     2.307     2.375
    69   1 H        0.925     0.063     2.165     2.301
    70   1 H        0.925     0.037     2.495     2.470
    71   1 H        0.925     0.053     2.280     2.361
    72   1 H        0.860     0.156     1.361     1.827

Wiberg/Mayer (AO) data.
largest (>0.10) Wiberg bond orders for each atom

     #   Z sym  total        # sym  WBO       # sym  WBO       # sym  WBO
 ---------------------------------------------------------------------------
     1   7 N    3.020 --     2 C    1.955    72 H    0.942
     2   6 C    3.933 --     1 N    1.955     3 C    0.993    47 H    0.913
     3   6 C    3.975 --     2 C    0.993     4 C    0.968    14 C    0.954
                            31 C    0.947
     4   6 C    3.977 --    13 C    1.626     5 C    1.245     3 C    0.968
     5   6 C    3.733 --     6 C    1.354     4 C    1.245    34 H    0.958
     6   6 C    3.910 --     5 C    1.354     9 C    1.310     7 O    1.085
     7   8 O    2.242 --     6 C    1.085     8 C    0.977
     8   6 C    3.931 --     7 O    0.977    36 H    0.976    35 H    0.974
                            37 H    0.974
     9   6 C    3.665 --     6 C    1.310    10 O    1.153    12 C    1.037
    10   8 O    2.272 --     9 C    1.153    11 C    0.974
    11   6 C    3.922 --    39 H    0.975    10 O    0.974    40 H    0.969
                            38 H    0.967
    12   6 C    3.983 --    13 C    1.043     9 C    1.037    41 H    0.915
                            64 H    0.912
    13   6 C    3.794 --     4 C    1.626    12 C    1.043    42 H    0.962
    14   6 C    3.976 --    15 C    0.983    44 H    0.973    43 H    0.968
                             3 C    0.954
    15   6 C    3.986 --    16 C    1.046    14 C    0.983    45 H    0.961
                            46 H    0.943
    16   6 C    3.690 --    17 N    1.351    15 C    1.046    48 H    0.962
                            30 C    0.236
    17   7 N    3.738 --    30 C    1.358    16 C    1.351    18 C    0.966
    18   6 C    3.955 --    19 C    0.977    50 H    0.969    49 H    0.968
                            17 N    0.966
    19   6 C    3.987 --    20 C    1.007    18 C    0.977    51 H    0.972
                            52 H    0.969
    20   6 C    3.943 --    21 C    1.411    29 C    1.379    19 C    1.007
    21   6 C    3.949 --    22 C    1.415    20 C    1.411    53 H    0.968
    22   6 C    3.958 --    21 C    1.415    23 C    1.384    54 H    0.963
    23   6 C    3.894 --    22 C    1.384    26 C    1.218    24 O    1.110
    24   8 O    2.254 --    23 C    1.110    25 C    0.976
    25   6 C    3.928 --    57 H    0.977    24 O    0.976    55 H    0.972
                            56 H    0.972
    26   6 C    3.897 --    29 C    1.396    23 C    1.218    27 O    1.103
    27   8 O    2.253 --    26 C    1.103    28 C    0.979
    28   6 C    3.932 --    27 O    0.979    58 H    0.977    59 H    0.973
                            60 H    0.973
    29   6 C    3.959 --    26 C    1.396    20 C    1.379    61 H    0.963
    30   6 C    3.612 --    17 N    1.358    62 H    0.976    63 H    0.970
                            16 C    0.236
    31   6 C    3.976 --    33 C    1.009    32 C    1.008    65 H    0.959
                             3 C    0.947
    32   6 C    3.981 --    31 C    1.008    67 H    0.983    68 H    0.982
                            66 H    0.974
    33   6 C    3.982 --    31 C    1.009    70 H    0.983    71 H    0.981
                            69 H    0.975
    34   1 H    0.995 --     5 C    0.958
    35   1 H    0.994 --     8 C    0.974
    36   1 H    0.993 --     8 C    0.976
    37   1 H    0.995 --     8 C    0.974
    38   1 H    0.989 --    11 C    0.967
    39   1 H    0.991 --    11 C    0.975
    40   1 H    0.990 --    11 C    0.969
    41   1 H    0.955 --    12 C    0.915
    42   1 H    0.998 --    13 C    0.962
    43   1 H    0.995 --    14 C    0.968
    44   1 H    0.996 --    14 C    0.973
    45   1 H    0.997 --    15 C    0.961
    46   1 H    0.979 --    15 C    0.943
    47   1 H    0.983 --     2 C    0.913
    48   1 H    0.997 --    16 C    0.962
    49   1 H    0.994 --    18 C    0.968
    50   1 H    0.995 --    18 C    0.969
    51   1 H    0.996 --    19 C    0.972
    52   1 H    0.995 --    19 C    0.969
    53   1 H    0.997 --    21 C    0.968
    54   1 H    0.995 --    22 C    0.963
    55   1 H    0.991 --    25 C    0.972
    56   1 H    0.991 --    25 C    0.972
    57   1 H    0.992 --    25 C    0.977
    58   1 H    0.993 --    28 C    0.977
    59   1 H    0.993 --    28 C    0.973
    60   1 H    0.993 --    28 C    0.973
    61   1 H    0.996 --    29 C    0.963
    62   1 H    0.997 --    30 C    0.976
    63   1 H    0.997 --    30 C    0.970
    64   1 H    0.952 --    12 C    0.912
    65   1 H    0.992 --    31 C    0.959
    66   1 H    0.991 --    32 C    0.974
    67   1 H    0.997 --    32 C    0.983
    68   1 H    0.994 --    32 C    0.982
    69   1 H    0.992 --    33 C    0.975
    70   1 H    0.997 --    33 C    0.983
    71   1 H    0.994 --    33 C    0.981
    72   1 H    0.970 --     1 N    0.942
 ---------------------------------------------------------------------------

molecular dipole:
                 x           y           z       tot (Debye)
 q only:       -0.117      -0.657      -0.084
   full:        0.192      -0.808      -0.208       2.177

           -------------------------------------------------
          | TOTAL ENERGY              -99.347947233106 Eh   |
          | GRADIENT NORM               0.003094332186 Eh/α |
          | HOMO-LUMO GAP               0.896817431865 eV   |
           -------------------------------------------------

 * finished run on 2024/04/06 at 11:13:39.981
