   * xtb version 6.6.1 (8d0f1dd) compiled by 'conda@1efc2f54142f' on 2023-08-01
          program call               : xtb xtbopt.xyz --opt crude --input .xc2 --gfn2

   ID    Z sym.   atoms
    1    6 C      1, 3, 5-7, 10, 11, 14
    2    7 N      2, 4, 9, 13
    3    8 O      8, 12
    4    1 H      15-25
########################################################################
[WARNING] Please study the warnings concerning your input carefully
-1- readin_getIntValue: could not parse ''
########################################################################

          :  Hamiltonian                  GFN2-xTB          :
 * total energy  :   -42.1921233 Eh     change       -0.7105427E-13 Eh
   *** GEOMETRY OPTIMIZATION CONVERGED AFTER 1 ITERATIONS ***

 final structure:
================
25
 xtb: 6.6.1 (8d0f1dd)
C            3.28898035818242        0.92757191610882        0.08942573504764
N            2.37833244930452       -0.04209395193354        0.02578812172718
C            2.58846560664117       -1.37172929264573       -0.10207499133989
N            1.38821241345605       -2.04023821561932       -0.11880938054196
C            0.39663748169373       -1.14324153800470       -0.00215001851995
C            0.98913547482911        0.13105470679046        0.06682951473646
C            0.18901324401098        1.26557638019956        0.02197924552850
O            0.63391292903079        2.51092831344004       -0.07608038383955
N           -1.15818774776014        1.06385307174094        0.04020311915590
C           -2.07183839992629        2.19676016355887        0.02199140403807
C           -1.78268620282202       -0.19160402127365        0.06516805742537
O           -2.97487012434122       -0.29064888555448        0.10488045132847
N           -0.94665684119878       -1.31214856646066        0.02108045066319
C           -1.54157888238388       -2.63475302233305        0.00353534393807
H            3.05493253451509        1.89265084953054        0.48394482460834
H            4.31438445014147        0.68127066642970       -0.06890720273027
H            1.59892796860306        2.51702658416891       -0.22369385290435
H            3.54659761840299       -1.83633755120599       -0.17732587095745
H           -1.50057364789013        3.11880292338630        0.03815725743683
H           -2.68994038803105        2.15245867348799       -0.87467915110396
H           -2.72847162875896        2.14394148539471        0.88974661317823
H           -1.19952783464790       -3.21419264219076        0.86136014888181
H           -1.29111707049364       -3.15356172814436       -0.92227783758230
H           -2.62187924790032       -2.51218266314508        0.06212384358098
H            1.30022700144292       -3.04092511412552       -0.19904382385542

          :  Hamiltonian                  GFN2-xTB          :
         :: total energy             -42.192123332633 Eh    ::
         :: gradient norm              0.007596472174 Eh/a0 ::
         :: HOMO-LUMO gap              1.539165582136 eV    ::
         :: SCC energy               -42.718421439614 Eh    ::
         :: -> dispersion             -0.023073011219 Eh    ::
         :: repulsion energy           0.526176477336 Eh    ::

    * Orbital Energies and Occupations

         #    Occupation            Energy/Eh            Energy/eV
      -------------------------------------------------------------
         1        2.0000           -0.9016971             -24.5364
       ...           ...                  ...                  ...
        25        2.0000           -0.6703141             -18.2402
        26        2.0000           -0.6684543             -18.1896
        27        2.0000           -0.6575684             -17.8933
        28        2.0000           -0.6466566             -17.5964
        29        2.0000           -0.6392214             -17.3941
        30        1.9999           -0.6220265             -16.9262
        31        1.9999           -0.6161013             -16.7650
        32        1.9999           -0.6121664             -16.6579
        33        1.9998           -0.6087070             -16.5638
        34        1.9992           -0.5843188             -15.9001
        35        1.9987           -0.5762659             -15.6810
        36        1.9956           -0.5569978             -15.1567
        37        1.7040           -0.4878965             -13.2763 (HOMO)
        38        0.2784           -0.4313332             -11.7372 (LUMO)
        39        0.0208           -0.3880644             -10.5598
        40        0.0037           -0.3606457              -9.8137
        41        0.0001           -0.2931721              -7.9776
        42        0.0000           -0.2051598              -5.5827
        43                         -0.1720387              -4.6814
        44                         -0.1448981              -3.9429
        45                         -0.1302537              -3.5444
        46                         -0.1097627              -2.9868
        47                         -0.0681173              -1.8536
        48                         -0.0357279              -0.9722
       ...                                ...                  ...
        67                          0.5372466              14.6192
      -------------------------------------------------------------
                  HL-Gap            0.0565633 Eh            1.5392 eV

     #   Z          covCN         q      C6AA      α(0)
     1   6 C        2.788    -0.129    31.277     9.161
     2   7 N        2.794     0.103    19.467     6.553
     3   6 C        3.036    -0.004    28.085     8.692
     4   7 N        2.773    -0.062    22.447     7.037
     5   6 C        3.015     0.105    25.670     8.311
     6   6 C        3.105    -0.037    28.789     8.792
     7   6 C        2.775     0.202    23.709     7.975
     8   8 O        1.659    -0.328    19.498     5.961
     9   7 N        2.746    -0.049    22.183     6.995
    10   6 C        3.706    -0.070    21.986     6.703
    11   6 C        2.727     0.312    21.693     7.625
    12   8 O        0.859    -0.355    20.810     6.116
    13   7 N        2.737    -0.058    22.365     7.024
    14   6 C        3.698    -0.072    22.045     6.716
    15   1 H        0.927     0.071     2.076     2.253
    16   1 H        0.927     0.083     1.953     2.185
    17   1 H        0.804     0.352     0.583     1.200
    18   1 H        0.927     0.105     1.741     2.063
    19   1 H        0.925     0.109     1.701     2.040
    20   1 H        0.925     0.104     1.751     2.069
    21   1 H        0.925     0.107     1.720     2.051
    22   1 H        0.924     0.084     1.935     2.175
    23   1 H        0.924     0.084     1.942     2.179
    24   1 H        0.925     0.125     1.577     1.964
    25   1 H        0.860     0.219     1.014     1.578

Wiberg/Mayer (AO) data.
largest (>0.10) Wiberg bond orders for each atom

     #   Z sym  total        # sym  WBO       # sym  WBO       # sym  WBO
 ---------------------------------------------------------------------------
     1   6 C    3.570 --     2 N    1.307    16 H    0.971    15 H    0.955
                             3 C    0.177
     2   7 N    3.721 --     1 C    1.307     3 C    1.248     6 C    1.070
     3   6 C    3.708 --     2 N    1.248     4 N    1.176    18 H    0.960
                             1 C    0.177
     4   7 N    3.555 --     5 C    1.260     3 C    1.176    25 H    0.924
     5   6 C    3.866 --     4 N    1.260     6 C    1.234    13 N    1.178
     6   6 C    3.906 --     7 C    1.295     5 C    1.234     2 N    1.070
     7   6 C    3.782 --     6 C    1.295     9 N    1.203     8 O    1.160
     8   8 O    2.179 --     7 C    1.160    17 H    0.825
     9   7 N    3.536 --     7 C    1.203    11 C    1.068    10 C    0.969
                            12 O    0.126
    10   6 C    3.916 --    19 H    0.971     9 N    0.969    20 H    0.964
                            21 H    0.963
    11   6 C    3.946 --    12 O    1.716    13 N    1.072     9 N    1.068
    12   8 O    2.068 --    11 C    1.716    13 N    0.136     9 N    0.126
    13   7 N    3.516 --     5 C    1.178    11 C    1.072    14 C    0.974
                            12 O    0.136
    14   6 C    3.926 --    13 N    0.974    22 H    0.971    23 H    0.970
                            24 H    0.966
    15   1 H    0.994 --     1 C    0.955
    16   1 H    0.992 --     1 C    0.971
    17   1 H    0.875 --     8 O    0.825
    18   1 H    0.988 --     3 C    0.960
    19   1 H    0.987 --    10 C    0.971
    20   1 H    0.984 --    10 C    0.964
    21   1 H    0.983 --    10 C    0.963
    22   1 H    0.989 --    14 C    0.971
    23   1 H    0.989 --    14 C    0.970
    24   1 H    0.984 --    14 C    0.966
    25   1 H    0.952 --     4 N    0.924
 ---------------------------------------------------------------------------

molecular dipole:
                 x           y           z       tot (Debye)
 q only:        1.786      -0.783      -0.183
   full:        2.266      -1.067      -0.194       6.386

           -------------------------------------------------
          | TOTAL ENERGY              -42.192123332633 Eh   |
          | GRADIENT NORM               0.007596472174 Eh/α |
          | HOMO-LUMO GAP               1.539165582136 eV   |
           -------------------------------------------------

 * finished run on 2024/06/05 at 19:59:21.073
