   * xtb version 6.6.1 (8d0f1dd) compiled by 'conda@1efc2f54142f' on 2023-08-01
          program call               : xtb struc.xyz --opt loose --input .xc1 --gfn2

   ID    Z sym.   atoms
    1    6 C      1, 3, 5-7, 10, 11, 14
    2    7 N      2, 4, 9, 13
    3    8 O      8, 12
    4    1 H      15-25
constraining bond 16 17 to    3.2800000 Å, actual value:    1.7840536 Å

          :  Hamiltonian                  GFN2-xTB          :
 * total energy  :   -38.2642872 Eh     change       -0.2401990E-09 Eh
 * total energy  :   -40.3374081 Eh     change       -0.2073121E+01 Eh
 * total energy  :   -41.6673808 Eh     change       -0.1329973E+01 Eh
 * total energy  :   -42.0644215 Eh     change       -0.3970407E+00 Eh
 * total energy  :   -42.0950577 Eh     change       -0.3063617E-01 Eh
 * total energy  :   -42.0959522 Eh     change       -0.8944943E-03 Eh
 * total energy  :   -42.0982567 Eh     change       -0.2304569E-02 Eh
 * total energy  :   -42.1004770 Eh     change       -0.2220271E-02 Eh
 * total energy  :   -42.1078517 Eh     change       -0.7374691E-02 Eh
 * total energy  :   -42.1160991 Eh     change       -0.8247394E-02 Eh
 * total energy  :   -42.2105703 Eh     change       -0.4402006E-03 Eh
 * total energy  :   -42.2108623 Eh     change       -0.2919831E-03 Eh
 * total energy  :   -42.2111776 Eh     change       -0.3153121E-03 Eh
 * total energy  :   -42.2113018 Eh     change       -0.1242224E-03 Eh
 * total energy  :   -42.2114028 Eh     change       -0.1009704E-03 Eh
 * total energy  :   -42.2115017 Eh     change       -0.9887884E-04 Eh
 * total energy  :   -42.2115614 Eh     change       -0.5972057E-04 Eh
 * total energy  :   -42.2115950 Eh     change       -0.3357300E-04 Eh
 * total energy  :   -42.2116174 Eh     change       -0.2236422E-04 Eh
   *** GEOMETRY OPTIMIZATION CONVERGED AFTER 35 ITERATIONS ***

 final structure:
================
25
 xtb: 6.6.1 (8d0f1dd)
C            3.29090617760031        0.93084460684418        0.08974991657292
N            2.37506169286202       -0.04383899716052        0.02013764284603
C            2.59261606405920       -1.37597090576596       -0.10215061774068
N            1.39677663658608       -2.04801988339090       -0.11391755646712
C            0.39800109077939       -1.14435884929253       -0.00266392390519
C            0.99022473355597        0.12941893656353        0.05967224238963
C            0.18970088704614        1.26874999429213        0.01321848209540
O            0.63515518134226        2.51803798514240       -0.09599441052909
N           -1.16235986884362        1.06523251699256        0.04057465195514
C           -2.07382796379290        2.19787153271958        0.03022549962759
C           -1.78137588298450       -0.18904575593101        0.06374008684237
O           -2.97769280488007       -0.29348430649357        0.10429070288682
N           -0.94567616671824       -1.31469121836946        0.01871327375249
C           -1.54418638415679       -2.63390944059763        0.00224442037093
H            3.05500082145437        1.87975403674315        0.52147002928147
H            4.31482299890000        0.69067585923955       -0.08315945160934
H            1.59690475125491        2.52316270182249       -0.25590950680742
H            3.55295360202270       -1.83712090068325       -0.17240869624208
H           -1.50062845186731        3.11901915464502        0.04809562478301
H           -2.69675794096227        2.15972720516142       -0.86410976896126
H           -2.72884347765957        2.14281884893843        0.89989181399491
H           -1.20979548069644       -3.21282831037022        0.86393531202723
H           -1.29015491391238       -3.15766086297154       -0.92022473617332
H           -2.62472085170901       -2.50726018230122        0.05395560720109
H            1.30832706482004       -3.04888522417673       -0.18820502029156

          :  Hamiltonian                  GFN2-xTB          :
         :: total energy             -42.211617354186 Eh    ::
         :: gradient norm              0.003195509762 Eh/a0 ::
         :: HOMO-LUMO gap              1.630284498532 eV    ::
         :: SCC energy               -42.731617353303 Eh    ::
         :: -> dispersion             -0.023036027940 Eh    ::
         :: repulsion energy           0.519866898288 Eh    ::

    * Orbital Energies and Occupations

         #    Occupation            Energy/Eh            Energy/eV
      -------------------------------------------------------------
         1        2.0000           -0.8961737             -24.3861
       ...           ...                  ...                  ...
        25        1.9997           -0.6701371             -18.2354
        26        1.9997           -0.6677266             -18.1698
        27        1.9995           -0.6566976             -17.8697
        28        1.9991           -0.6448752             -17.5479
        29        1.9988           -0.6369972             -17.3336
        30        1.9976           -0.6218289             -16.9208
        31        1.9972           -0.6174057             -16.8005
        32        1.9964           -0.6115592             -16.6414
        33        1.9957           -0.6076532             -16.5351
        34        1.9875           -0.5820096             -15.8373
        35        1.9824           -0.5738725             -15.6159
        36        1.9618           -0.5552097             -15.1080
        37        1.5416           -0.4904698             -13.3464 (HOMO)
        38        0.4251           -0.4305580             -11.7161 (LUMO)
        39        0.0875           -0.3884153             -10.5693
        40        0.0298           -0.3621190              -9.8538
        41        0.0016           -0.2919197              -7.9435
        42        0.0000           -0.2037139              -5.5433
        43        0.0000           -0.1741290              -4.7383
        44        0.0000           -0.1400867              -3.8120
        45        0.0000           -0.1299865              -3.5371
        46        0.0000           -0.1088824              -2.9628
        47        0.0000           -0.0690813              -1.8798
        48                         -0.0368692              -1.0033
       ...                                ...                  ...
        67                          0.5263956              14.3240
      -------------------------------------------------------------
                  HL-Gap            0.0599119 Eh            1.6303 eV

     #   Z          covCN         q      C6AA      α(0)
     1   6 C        2.787    -0.122    31.096     9.134
     2   7 N        2.796     0.097    19.573     6.571
     3   6 C        3.027     0.006    27.852     8.657
     4   7 N        2.769    -0.066    22.519     7.048
     5   6 C        3.012     0.100    25.776     8.328
     6   6 C        3.095    -0.034    28.724     8.784
     7   6 C        2.774     0.190    23.931     8.012
     8   8 O        1.659    -0.332    19.584     5.974
     9   7 N        2.745    -0.048    22.161     6.992
    10   6 C        3.706    -0.068    21.961     6.699
    11   6 C        2.726     0.306    21.796     7.643
    12   8 O        0.859    -0.358    20.853     6.123
    13   7 N        2.736    -0.056    22.330     7.018
    14   6 C        3.697    -0.071    22.031     6.714
    15   1 H        0.927     0.076     2.025     2.225
    16   1 H        0.927     0.085     1.924     2.169
    17   1 H        0.804     0.349     0.590     1.206
    18   1 H        0.927     0.107     1.722     2.052
    19   1 H        0.925     0.111     1.687     2.031
    20   1 H        0.924     0.105     1.737     2.061
    21   1 H        0.925     0.109     1.709     2.044
    22   1 H        0.924     0.085     1.927     2.171
    23   1 H        0.924     0.084     1.934     2.175
    24   1 H        0.925     0.126     1.568     1.958
    25   1 H        0.860     0.219     1.015     1.578

Wiberg/Mayer (AO) data.
largest (>0.10) Wiberg bond orders for each atom

     #   Z sym  total        # sym  WBO       # sym  WBO       # sym  WBO
 ---------------------------------------------------------------------------
     1   6 C    3.423 --     2 N    1.271    16 H    0.970    15 H    0.955
                             3 C    0.115
     2   7 N    3.684 --     1 C    1.271     3 C    1.237     6 C    1.078
     3   6 C    3.628 --     2 N    1.237     4 N    1.189    18 H    0.959
                             1 C    0.115
     4   7 N    3.512 --     5 C    1.224     3 C    1.189    25 H    0.924
     5   6 C    3.805 --     6 C    1.239     4 N    1.224    13 N    1.177
     6   6 C    3.875 --     7 C    1.275     5 C    1.239     2 N    1.078
     7   6 C    3.706 --     6 C    1.275     9 N    1.183     8 O    1.146
     8   8 O    2.148 --     7 C    1.146    17 H    0.830
     9   7 N    3.496 --     7 C    1.183    11 C    1.076    10 C    0.972
                            12 O    0.121
    10   6 C    3.907 --     9 N    0.972    19 H    0.969    20 H    0.960
                            21 H    0.959
    11   6 C    3.910 --    12 O    1.688     9 N    1.076    13 N    1.061
    12   8 O    2.015 --    11 C    1.688    13 N    0.124     9 N    0.121
    13   7 N    3.478 --     5 C    1.177    11 C    1.061    14 C    0.977
                            12 O    0.124
    14   6 C    3.920 --    13 N    0.977    22 H    0.968    23 H    0.968
                            24 H    0.963
    15   1 H    0.992 --     1 C    0.955
    16   1 H    0.990 --     1 C    0.970
    17   1 H    0.876 --     8 O    0.830
    18   1 H    0.987 --     3 C    0.959
    19   1 H    0.985 --    10 C    0.969
    20   1 H    0.978 --    10 C    0.960
    21   1 H    0.978 --    10 C    0.959
    22   1 H    0.985 --    14 C    0.968
    23   1 H    0.985 --    14 C    0.968
    24   1 H    0.982 --    14 C    0.963
    25   1 H    0.952 --     4 N    0.924
 ---------------------------------------------------------------------------

molecular dipole:
                 x           y           z       tot (Debye)
 q only:        1.881      -0.810      -0.180
   full:        2.373      -1.108      -0.188       6.675

           -------------------------------------------------
          | TOTAL ENERGY              -42.211617354186 Eh   |
          | GRADIENT NORM               0.003195509762 Eh/α |
          | HOMO-LUMO GAP               1.630284498532 eV   |
           -------------------------------------------------

 * finished run on 2024/06/05 at 19:58:55.533
