   * xtb version 6.6.1 (8d0f1dd) compiled by 'conda@1efc2f54142f' on 2023-08-01
          program call               : xtb struc.xyz --opt loose --input .xc1 --gfn2

   ID    Z sym.   atoms
    1    7 N      1, 17
    2    6 C      2-6, 8, 9, 11-16, 18-23, 25, 26, 28-33
    3    8 O      7, 10, 24, 27
    4    1 H      34-72
constraining bond 13 47 to    4.7133300 Å, actual value:    2.9945746 Å

          :  Hamiltonian                  GFN2-xTB          :
 * total energy  :   -99.9315985 Eh     change       -0.4035485E-08 Eh
 * total energy  :  -100.3799819 Eh     change       -0.4483834E+00 Eh
 * total energy  :  -100.9335227 Eh     change       -0.5535408E+00 Eh
 * total energy  :  -101.6122618 Eh     change       -0.6787391E+00 Eh
 * total energy  :   -99.9287136 Eh     change        0.1683548E+01 Eh
 * total energy  :  -101.8191894 Eh     change       -0.1890476E+01 Eh
 * total energy  :  -101.8708690 Eh     change       -0.5167955E-01 Eh
 * total energy  :  -101.9214322 Eh     change       -0.5056328E-01 Eh
 * total energy  :  -101.9422611 Eh     change       -0.2082887E-01 Eh
 * total energy  :  -101.9552981 Eh     change       -0.1303695E-01 Eh
 * total energy  :  -102.0776063 Eh     change       -0.3545801E-03 Eh
 * total energy  :  -102.0779286 Eh     change       -0.3223077E-03 Eh
 * total energy  :  -102.0782390 Eh     change       -0.3103972E-03 Eh
 * total energy  :  -102.0784795 Eh     change       -0.2405125E-03 Eh
 * total energy  :  -102.0786617 Eh     change       -0.1822292E-03 Eh
 * total energy  :  -102.0788103 Eh     change       -0.1485869E-03 Eh
 * total energy  :  -102.0789309 Eh     change       -0.1206289E-03 Eh
 * total energy  :  -102.0790128 Eh     change       -0.8190572E-04 Eh
 * total energy  :  -102.0790463 Eh     change       -0.3346785E-04 Eh
   *** GEOMETRY OPTIMIZATION CONVERGED AFTER 68 ITERATIONS ***

 final structure:
================
72
 xtb: 6.6.1 (8d0f1dd)
N           -1.63725622765086        1.00706640619885        2.05504645485371
C           -1.53336819317033        1.04592628992309        0.80642898330646
C           -2.72534659964453        1.13052188068055       -0.12330277268745
C           -3.69407572482231       -0.01648433339756        0.06128788174282
C           -4.79260219485893       -0.12428716352955       -0.74351400721386
C           -5.72270409137801       -1.16757931325669       -0.62263101121261
O           -6.82271719375090       -1.31124245466827       -1.35624920958380
C           -7.16470195999528       -0.35001116958494       -2.33135436398375
C           -5.50592155016079       -2.20299389740518        0.35858330033904
O           -6.43648129175909       -3.17768379830460        0.34381682958184
C           -6.33054051848197       -4.23078322804728        1.27557706509042
C           -4.42907573158192       -2.13076352854723        1.17787219349903
C           -3.43177488977167       -1.01158652071059        1.15203574410201
C           -2.09694303206107        1.06186323832843       -1.54110482011040
C           -0.72062533009607        0.42863723491718       -1.35191157331746
C           -0.24507942674448        1.01548575214437       -0.01169400156412
N            0.81961132160406        0.36573207650631        0.70088207639850
C            2.15933173479372        0.85380458833507        0.50662865269578
C            2.78425495423254        0.55701105414085       -0.88061292056587
C            4.27668525487214        0.63591133259139       -0.77715207248257
C            4.95844562260568        1.82181259635054       -1.00837458705208
C            6.33162412753730        1.89666268333198       -0.83596979399150
C            7.05468925415628        0.78633379133722       -0.42012420821144
O            8.38171462750165        0.74606777126010       -0.20386320890482
C            9.14703568181743        1.91517957978116       -0.38206430213218
C            6.36577543854855       -0.43785911078815       -0.18704704807176
O            7.14007460925575       -1.46683224465938        0.20830692784706
C            6.54424527490472       -2.71400302443990        0.47366119656527
C            4.99300574216909       -0.48718957012585       -0.36807713296137
C            0.70312812219172       -1.05704005855139        0.90163621685958
C           -3.47278325158105        2.48503404705447        0.11411076707395
C           -4.30219196453989        2.44544553090048        1.39407205573226
C           -2.51300311393700        3.67145077364020        0.18330932100262
H           -4.96025421699893        0.62257372416375       -1.50411982171033
H           -7.29266539744483        0.64096529802892       -1.88702711439976
H           -8.11274753934265       -0.68405481699466       -2.74862776176355
H           -6.41561098597181       -0.30414616737892       -3.12695381042027
H           -6.37232817992969       -3.85902161502632        2.30347495016916
H           -7.18769263104946       -4.87414272664819        1.08754822702162
H           -5.40874713659071       -4.80218902963196        1.12913379367476
H           -4.24000743625298       -2.89543670728831        1.91375775736227
H           -3.59765345817720       -0.43153404329804        2.09356756085071
H           -2.71018809345963        0.47983509293279       -2.22635286069889
H           -1.99093789594539        2.06367124196888       -1.95510491685540
H           -0.81388712168287       -0.65514919519933       -1.27273549902571
H           -0.04428936684791        0.65973024013990       -2.17297018411394
H           -2.73217290837159       -1.26231437779509        1.15400106382025
H            0.05291860240015        2.05871284467764       -0.16964345235669
H            2.78640773609739        0.39130134616060        1.27386475058769
H            2.16590943138926        1.93359519719517        0.67739734641828
H            2.41160695862498        1.27161057378801       -1.61462533086498
H            2.49118245972762       -0.44674385892258       -1.19119257435438
H            4.41903602693401        2.69956304631465       -1.32949405110729
H            6.83453160309594        2.83078370571500       -1.02597871911326
H            8.81327442653515        2.71702932703901        0.28348044942067
H            9.11296080089279        2.26250875310096       -1.41903219863876
H           10.16817831193206        1.63681120190308       -0.12817608103144
H            7.35703727355546       -3.36687125529972        0.78632494738162
H            5.80732718443245       -2.64313500384446        1.28022368374517
H            6.06959637381104       -3.13022129872078       -0.42055591201380
H            4.45983345241678       -1.40914908666230       -0.19541700254956
H            0.93823589707957       -1.64722185108719        0.00646616882496
H           -0.31065888678870       -1.29780317747719        1.21657712681519
H            1.38960904000696       -1.35478532532580        1.69379563863347
H           -4.14106065330313        2.63172849734853       -0.74049013152774
H           -3.66226492187442        2.20662995424985        2.23975970577077
H           -5.09690006944974        1.70655814324796        1.33259729054136
H           -4.75434105950369        3.41828789731605        1.56700274456097
H           -1.89556085502409        3.61084858987619        1.07613603448405
H           -1.86582001076071        3.73345074740052       -0.68794435206173
H           -3.08623554295292        4.59364740910620        0.23384444066484
H           -0.76153509442534        0.97460901600195        2.57054430382469

          :  Hamiltonian                  GFN2-xTB          :
         :: total energy            -102.079046299999 Eh    ::
         :: gradient norm              0.003459717009 Eh/a0 ::
         :: HOMO-LUMO gap              1.234721132911 eV    ::
         :: SCC energy              -100.796470868656 Eh    ::
         :: -> dispersion             -0.075882554224 Eh    ::
         :: repulsion energy           1.530947222210 Eh    ::

    * Orbital Energies and Occupations

         #    Occupation            Energy/Eh            Energy/eV
      -------------------------------------------------------------
         1        2.0000           -0.8293975             -22.5691
       ...           ...                  ...                  ...
        78        1.9986           -0.5345326             -14.5454
        79        1.9983           -0.5317147             -14.4687
        80        1.9981           -0.5300294             -14.4228
        81        1.9973           -0.5243910             -14.2694
        82        1.9972           -0.5242452             -14.2654
        83        1.9958           -0.5177681             -14.0892
        84        1.9954           -0.5162356             -14.0475
        85        1.9948           -0.5142642             -13.9938
        86        1.9706           -0.4866512             -13.2425
        87        1.9681           -0.4853347             -13.2066
        88        1.9584           -0.4810203             -13.0892
        89        1.8541           -0.4603026             -12.5255
        90        1.7298           -0.4494470             -12.2301 (HOMO)
        91        0.5343           -0.4040718             -10.9954 (LUMO)
        92        0.0112           -0.3380890              -9.1999
        93        0.0043           -0.3228476              -8.7851
        94        0.0018           -0.3089874              -8.4080
        95        0.0015           -0.3063262              -8.3356
        96        0.0000           -0.2341082              -6.3704
        97        0.0000           -0.1840769              -5.0090
        98                         -0.1008898              -2.7454
        99                         -0.0809324              -2.2023
       100                         -0.0762130              -2.0739
       101                         -0.0678396              -1.8460
       ...                                ...                  ...
       171                          1.4343916              39.0318
      -------------------------------------------------------------
                  HL-Gap            0.0453752 Eh            1.2347 eV

     #   Z          covCN         q      C6AA      α(0)
     1   7 N        1.775    -0.309    28.814     7.949
     2   6 C        2.904     0.120    25.359     8.257
     3   6 C        3.919     0.001    20.501     6.435
     4   6 C        2.958     0.020    27.556     8.610
     5   6 C        2.902    -0.073    29.820     8.954
     6   6 C        2.861     0.143    24.882     8.176
     7   8 O        1.706    -0.190    17.178     5.596
     8   6 C        3.644     0.018    20.606     6.525
     9   6 C        2.849     0.135    25.052     8.203
    10   8 O        1.706    -0.232    17.841     5.703
    11   6 C        3.646     0.023    20.523     6.510
    12   6 C        2.901    -0.081    30.014     8.983
    13   6 C        3.812    -0.103    22.456     6.745
    14   6 C        3.831    -0.069    21.800     6.643
    15   6 C        3.826    -0.066    21.752     6.637
    16   6 C        3.817     0.020    20.233     6.402
    17   7 N        2.727    -0.125    23.721     7.234
    18   6 C        3.751    -0.001    20.664     6.483
    19   6 C        3.806    -0.069    21.825     6.650
    20   6 C        2.969     0.007    27.856     8.657
    21   6 C        2.921    -0.044    29.102     8.847
    22   6 C        2.913    -0.065    29.627     8.925
    23   6 C        2.864     0.134    25.059     8.205
    24   8 O        1.706    -0.218    17.615     5.667
    25   6 C        3.645     0.024    20.501     6.508
    26   6 C        2.862     0.134    25.062     8.206
    27   8 O        1.706    -0.221    17.673     5.676
    28   6 C        3.645     0.027    20.456     6.500
    29   6 C        2.920    -0.078    29.937     8.973
    30   6 C        3.699    -0.040    21.459     6.625
    31   6 C        3.852    -0.008    20.679     6.468
    32   6 C        3.756    -0.122    22.887     6.821
    33   6 C        3.756    -0.112    22.688     6.791
    34   1 H        0.926     0.063     2.168     2.303
    35   1 H        0.924     0.064     2.156     2.296
    36   1 H        0.925     0.091     1.869     2.138
    37   1 H        0.924     0.062     2.175     2.306
    38   1 H        0.924     0.055     2.262     2.352
    39   1 H        0.925     0.085     1.933     2.174
    40   1 H        0.924     0.053     2.286     2.364
    41   1 H        0.926     0.064     2.158     2.297
    42   1 H        0.920     0.124     1.581     1.966
    43   1 H        0.925     0.047     2.356     2.400
    44   1 H        0.925     0.053     2.286     2.365
    45   1 H        0.924     0.041     2.435     2.440
    46   1 H        0.925     0.046     2.373     2.409
    47   1 H        0.931     0.131     1.527     1.932
    48   1 H        0.924     0.063     2.168     2.303
    49   1 H        0.924     0.053     2.288     2.365
    50   1 H        0.924     0.049     2.330     2.387
    51   1 H        0.925     0.046     2.372     2.409
    52   1 H        0.924     0.049     2.334     2.389
    53   1 H        0.926     0.051     2.310     2.377
    54   1 H        0.926     0.060     2.200     2.320
    55   1 H        0.924     0.057     2.240     2.340
    56   1 H        0.924     0.058     2.225     2.333
    57   1 H        0.925     0.083     1.947     2.182
    58   1 H        0.925     0.082     1.958     2.188
    59   1 H        0.924     0.051     2.311     2.377
    60   1 H        0.924     0.054     2.272     2.357
    61   1 H        0.926     0.050     2.316     2.380
    62   1 H        0.924     0.036     2.498     2.472
    63   1 H        0.925     0.048     2.347     2.396
    64   1 H        0.925     0.056     2.241     2.341
    65   1 H        0.924     0.041     2.433     2.439
    66   1 H        0.925     0.066     2.131     2.283
    67   1 H        0.925     0.037     2.490     2.468
    68   1 H        0.925     0.055     2.257     2.349
    69   1 H        0.925     0.045     2.381     2.413
    70   1 H        0.925     0.036     2.505     2.475
    71   1 H        0.925     0.055     2.261     2.351
    72   1 H        0.860     0.162     1.320     1.800

Wiberg/Mayer (AO) data.
largest (>0.10) Wiberg bond orders for each atom

     #   Z sym  total        # sym  WBO       # sym  WBO       # sym  WBO
 ---------------------------------------------------------------------------
     1   7 N    3.013 --     2 C    1.912    72 H    0.934
     2   6 C    3.930 --     1 N    1.912     3 C    0.979    16 C    0.945
     3   6 C    3.978 --     4 C    0.994     2 C    0.979    14 C    0.960
                            31 C    0.922
     4   6 C    3.754 --     5 C    1.554    13 C    1.041     3 C    0.994
     5   6 C    3.976 --     4 C    1.554     6 C    1.289    34 H    0.954
     6   6 C    3.711 --     5 C    1.289     7 O    1.167     9 C    1.129
     7   8 O    2.292 --     6 C    1.167     8 C    0.968
     8   6 C    3.922 --    36 H    0.976    35 H    0.971    37 H    0.971
                             7 O    0.968
     9   6 C    3.936 --    12 C    1.577     6 C    1.129    10 O    1.098
    10   8 O    2.263 --     9 C    1.098    11 C    0.975    12 C    0.107
    11   6 C    3.929 --    39 H    0.977    10 O    0.975    38 H    0.974
                            40 H    0.974
    12   6 C    3.814 --     9 C    1.577    13 C    1.043    41 H    0.962
                            10 O    0.107
    13   6 C    3.968 --    12 C    1.043     4 C    1.041    47 H    0.937
                            42 H    0.869
    14   6 C    3.980 --    15 C    1.006    43 H    0.975    44 H    0.970
                             3 C    0.960
    15   6 C    3.974 --    14 C    1.006    45 H    0.976    46 H    0.975
                            16 C    0.963
    16   6 C    3.959 --    17 N    1.011    15 C    0.963     2 C    0.945
                            48 H    0.936
    17   7 N    3.146 --    30 C    1.016    18 C    1.014    16 C    1.011
    18   6 C    3.964 --    17 N    1.014    50 H    0.969    49 H    0.967
                            19 C    0.954
    19   6 C    3.971 --    20 C    1.018    51 H    0.974    52 H    0.968
                            18 C    0.954
    20   6 C    3.928 --    21 C    1.394    29 C    1.377    19 C    1.018
    21   6 C    3.930 --    22 C    1.422    20 C    1.394    53 H    0.967
    22   6 C    3.950 --    21 C    1.422    23 C    1.376    54 H    0.963
    23   6 C    3.874 --    22 C    1.376    26 C    1.211    24 O    1.114
    24   8 O    2.247 --    23 C    1.114    25 C    0.976
    25   6 C    3.926 --    57 H    0.976    24 O    0.976    55 H    0.972
                            56 H    0.971
    26   6 C    3.883 --    29 C    1.394    23 C    1.211    27 O    1.107
    27   8 O    2.248 --    26 C    1.107    28 C    0.978
    28   6 C    3.930 --    27 O    0.978    58 H    0.977    59 H    0.973
                            60 H    0.972
    29   6 C    3.951 --    26 C    1.394    20 C    1.377    61 H    0.962
    30   6 C    3.973 --    17 N    1.016    63 H    0.977    64 H    0.977
                            62 H    0.963
    31   6 C    3.974 --    32 C    1.011    33 C    1.010    65 H    0.961
                             3 C    0.922
    32   6 C    3.985 --    31 C    1.011    67 H    0.983    68 H    0.981
                            66 H    0.975
    33   6 C    3.989 --    31 C    1.010    69 H    0.983    71 H    0.981
                            70 H    0.979
    34   1 H    0.995 --     5 C    0.954
    35   1 H    0.990 --     8 C    0.971
    36   1 H    0.991 --     8 C    0.976
    37   1 H    0.990 --     8 C    0.971
    38   1 H    0.995 --    11 C    0.974
    39   1 H    0.992 --    11 C    0.977
    40   1 H    0.995 --    11 C    0.974
    41   1 H    0.994 --    12 C    0.962
    42   1 H    0.937 --    13 C    0.869
    43   1 H    0.996 --    14 C    0.975
    44   1 H    0.995 --    14 C    0.970
    45   1 H    0.998 --    15 C    0.976
    46   1 H    0.995 --    15 C    0.975
    47   1 H    0.971 --    13 C    0.937
    48   1 H    0.995 --    16 C    0.936
    49   1 H    0.994 --    18 C    0.967
    50   1 H    0.993 --    18 C    0.969
    51   1 H    0.996 --    19 C    0.974
    52   1 H    0.995 --    19 C    0.968
    53   1 H    0.996 --    21 C    0.967
    54   1 H    0.994 --    22 C    0.963
    55   1 H    0.990 --    25 C    0.972
    56   1 H    0.989 --    25 C    0.971
    57   1 H    0.992 --    25 C    0.976
    58   1 H    0.992 --    28 C    0.977
    59   1 H    0.992 --    28 C    0.973
    60   1 H    0.991 --    28 C    0.972
    61   1 H    0.996 --    29 C    0.962
    62   1 H    0.982 --    30 C    0.963
    63   1 H    0.995 --    30 C    0.977
    64   1 H    0.993 --    30 C    0.977
    65   1 H    0.995 --    31 C    0.961
    66   1 H    0.994 --    32 C    0.975
    67   1 H    0.997 --    32 C    0.983
    68   1 H    0.995 --    32 C    0.981
    69   1 H    0.997 --    33 C    0.983
    70   1 H    0.998 --    33 C    0.979
    71   1 H    0.995 --    33 C    0.981
    72   1 H    0.968 --     1 N    0.934
 ---------------------------------------------------------------------------

molecular dipole:
                 x           y           z       tot (Debye)
 q only:       -0.962      -0.162      -0.164
   full:       -0.569      -0.095      -0.524       1.981

           -------------------------------------------------
          | TOTAL ENERGY             -102.079046299999 Eh   |
          | GRADIENT NORM               0.003459717009 Eh/α |
          | HOMO-LUMO GAP               1.234721132911 eV   |
           -------------------------------------------------

 * finished run on 2024/04/06 at 11:16:35.781
