   * xtb version 6.6.1 (8d0f1dd) compiled by 'conda@1efc2f54142f' on 2023-08-01
          program call               : xtb xtbopt.xyz --opt crude --input .xc2 --gfn2

   ID    Z sym.   atoms
    1    7 N      1, 17
    2    6 C      2-6, 8, 9, 11-16, 18-23, 25, 26, 28-33
    3    8 O      7, 10, 24, 27
    4    1 H      34-72
########################################################################
[WARNING] Please study the warnings concerning your input carefully
-1- readin_getIntValue: could not parse ''
########################################################################

          :  Hamiltonian                  GFN2-xTB          :
 * total energy  :   -99.2646695 Eh     change       -0.3126388E-12 Eh
 * total energy  :   -99.4262333 Eh     change       -0.1615639E+00 Eh
 * total energy  :   -99.4279847 Eh     change       -0.1751373E-02 Eh
 * total energy  :   -99.4289286 Eh     change       -0.9439385E-03 Eh
 * total energy  :   -99.4291633 Eh     change       -0.2346493E-03 Eh
   *** GEOMETRY OPTIMIZATION CONVERGED AFTER 5 ITERATIONS ***

 final structure:
================
72
 xtb: 6.6.1 (8d0f1dd)
N           -1.63795889526289        1.02682207989744        2.05987605985816
C           -1.53846238535287        1.04935939578347        0.81033988040456
C           -2.73082369893820        1.13036963776700       -0.11931319845259
C           -3.70303051387179       -0.01326676277491        0.06678797381691
C           -4.79491924357420       -0.12527151666692       -0.75104976586415
C           -5.73158430984136       -1.16282806061660       -0.62612708554181
O           -6.82866993444110       -1.30530935543226       -1.36617830537399
C           -7.16490895991365       -0.34479604633474       -2.34338613369184
C           -5.52729369633420       -2.19416543334975        0.36181019388043
O           -6.45108360740729       -3.17484924924653        0.33467605139093
C           -6.34475012283992       -4.22822298329162        1.26641599449629
C           -4.46278690392447       -2.11123817246757        1.19993112017238
C           -3.48774358232703       -0.99343094201419        1.16094420992569
C           -2.10229711077042        1.05871678683149       -1.53672515555236
C           -0.72671772416649        0.42472738228500       -1.34720063168231
C           -0.25031781734165        1.01178661278328       -0.00819126684796
N            0.81417850980113        0.35904769317023        0.70415870367052
C            2.15398072719542        0.84858977547109        0.51566472652242
C            2.78307979011459        0.55564923568508       -0.87074047374291
C            4.27522531149675        0.63524272402420       -0.76658130903801
C            4.95540031383060        1.82125762412955       -1.00209660102957
C            6.32890725779351        1.89790542711095       -0.83414794848513
C            7.05486627400436        0.78887273001660       -0.41972708194413
O            8.38258203153766        0.75051588300862       -0.20976820393843
C            9.14564138538075        1.92064167954767       -0.39323842704853
C            6.36768060382970       -0.43559878870227       -0.18301317479703
O            7.14475257990596       -1.46407709926139        0.20820148299197
C            6.55277466735990       -2.71398223857122        0.47078880006778
C            4.99418459327129       -0.48629349281471       -0.35773003804259
C            0.69950942370525       -1.06450917671111        0.89951178305922
C           -3.47771792671452        2.48629939540749        0.11476250534663
C           -4.30276486126955        2.45020887491901        1.39769058614967
C           -2.51887616273434        3.67407146958209        0.17628819359018
H           -4.95325204222551        0.60968991040740       -1.52564700095330
H           -7.29162404427290        0.64700502505392       -1.90044106823341
H           -8.11254281648305       -0.67643323310632       -2.76346777708751
H           -6.41388804845580       -0.30158120167399       -3.13722732728679
H           -6.39068066770646       -3.85715177047229        2.29424906056329
H           -7.19812061041362       -4.87545066390673        1.07600793317292
H           -5.41981792148225       -4.79466116597101        1.12229852707666
H           -4.28253058484235       -2.86553266866068        1.94761166214843
H           -3.52156195289177       -0.44041516563816        2.11657396088164
H           -2.71490294329951        0.47623972527982       -2.22183873983644
H           -1.99469860772913        2.05993073094928       -1.95204274206210
H           -0.82142033161979       -0.65875137833381       -1.26661069366735
H           -0.05017910997561        0.65365424031910       -2.16875394507971
H           -2.46953890881290       -1.38847369869686        1.13184469041584
H            0.05378747712797        2.05365712160737       -0.16628615381347
H            2.77911268238264        0.38530694840362        1.28375230411440
H            2.15908190830011        1.92786538826082        0.68838913898940
H            2.41167173125928        1.27253797857946       -1.60331878419857
H            2.49048389230523       -0.44698211779987       -1.18595542741797
H            4.41443935118005        2.69790639706658       -1.32359965126996
H            6.82976744686225        2.83241352753041       -1.02737003228284
H            8.81447331788361        2.72247534553147        0.27353405315522
H            9.10504931866409        2.26686312454704       -1.43024061778021
H           10.16841075809404        1.64353031380565       -0.14484995341205
H            7.36906069958860       -3.36640833790401        0.77460107804158
H            5.82105266430449       -2.64868477651473        1.28234866501656
H            6.07328446660290       -3.12610311935878       -0.42258796895429
H            4.46291759597721       -1.40862880814176       -0.18140362487650
H            0.93919428049177       -1.65208853549320        0.00375122512315
H           -0.31596975039690       -1.30683302135824        1.20921874393680
H            1.38075826220519       -1.36463705363669        1.69554807974615
H           -4.14887495940810        2.62903644973351       -0.73831937670057
H           -3.65961091693938        2.21117190344134        2.24079293397459
H           -5.09797769518283        1.71174011366493        1.34016201943326
H           -4.75301074395938        3.42391737883136        1.57141218419673
H           -1.89771386910977        3.61681602054145        1.06659662288056
H           -1.87544905263237        3.73464055280406       -0.69789711893495
H           -3.09325867161838        4.59562963152968        0.22647678362477
H           -0.75946201898495        0.99868332209540        2.57131971569394

          :  Hamiltonian                  GFN2-xTB          :
         :: total energy             -99.429163283210 Eh    ::
         :: gradient norm              0.007327438275 Eh/a0 ::
         :: HOMO-LUMO gap              1.228714746087 eV    ::
         :: SCC energy              -100.770852700960 Eh    ::
         :: -> dispersion             -0.075876687502 Eh    ::
         :: repulsion energy           1.340829740546 Eh    ::

    * Orbital Energies and Occupations

         #    Occupation            Energy/Eh            Energy/eV
      -------------------------------------------------------------
         1        2.0000           -0.8291126             -22.5613
       ...           ...                  ...                  ...
        78        1.9985           -0.5338464             -14.5267
        79        1.9982           -0.5313044             -14.4575
        80        1.9981           -0.5301582             -14.4263
        81        1.9972           -0.5245555             -14.2739
        82        1.9971           -0.5240008             -14.2588
        83        1.9958           -0.5178352             -14.0910
        84        1.9954           -0.5164212             -14.0525
        85        1.9945           -0.5136273             -13.9765
        86        1.9704           -0.4867587             -13.2454
        87        1.9670           -0.4850188             -13.1980
        88        1.9569           -0.4807237             -13.0812
        89        1.8537           -0.4605142             -12.5312
        90        1.7295           -0.4496830             -12.2365 (HOMO)
        91        0.5392           -0.4045285             -11.0078 (LUMO)
        92        0.0110           -0.3380066              -9.1976
        93        0.0042           -0.3226299              -8.7792
        94        0.0018           -0.3091960              -8.4137
        95        0.0015           -0.3065353              -8.3413
        96        0.0000           -0.2355894              -6.4107
        97        0.0000           -0.1842731              -5.0143
        98                         -0.1018032              -2.7702
        99                         -0.0787531              -2.1430
       100                         -0.0748878              -2.0378
       101                         -0.0665638              -1.8113
       ...                                ...                  ...
       171                          0.5788763              15.7520
      -------------------------------------------------------------
                  HL-Gap            0.0451544 Eh            1.2287 eV

     #   Z          covCN         q      C6AA      α(0)
     1   7 N        1.775    -0.308    28.803     7.947
     2   6 C        2.903     0.121    25.350     8.256
     3   6 C        3.919     0.001    20.501     6.435
     4   6 C        2.958     0.025    27.441     8.592
     5   6 C        2.904    -0.072    29.801     8.951
     6   6 C        2.860     0.143    24.879     8.176
     7   8 O        1.706    -0.191    17.190     5.598
     8   6 C        3.644     0.019    20.601     6.524
     9   6 C        2.850     0.135    25.038     8.201
    10   8 O        1.706    -0.231    17.825     5.700
    11   6 C        3.647     0.023    20.522     6.510
    12   6 C        2.902    -0.075    29.875     8.962
    13   6 C        3.813    -0.069    21.817     6.648
    14   6 C        3.831    -0.069    21.802     6.643
    15   6 C        3.826    -0.066    21.748     6.636
    16   6 C        3.817     0.020    20.228     6.401
    17   7 N        2.727    -0.126    23.739     7.236
    18   6 C        3.751    -0.001    20.662     6.483
    19   6 C        3.806    -0.069    21.825     6.651
    20   6 C        2.969     0.007    27.856     8.657
    21   6 C        2.921    -0.044    29.102     8.847
    22   6 C        2.913    -0.065    29.628     8.926
    23   6 C        2.864     0.135    25.056     8.205
    24   8 O        1.706    -0.217    17.612     5.666
    25   6 C        3.645     0.024    20.503     6.508
    26   6 C        2.862     0.134    25.061     8.206
    27   8 O        1.706    -0.221    17.674     5.676
    28   6 C        3.645     0.027    20.459     6.501
    29   6 C        2.920    -0.077    29.935     8.972
    30   6 C        3.699    -0.038    21.423     6.620
    31   6 C        3.852    -0.007    20.675     6.467
    32   6 C        3.756    -0.121    22.881     6.820
    33   6 C        3.756    -0.112    22.689     6.792
    34   1 H        0.926     0.063     2.164     2.301
    35   1 H        0.924     0.063     2.159     2.298
    36   1 H        0.925     0.091     1.869     2.138
    37   1 H        0.924     0.062     2.178     2.308
    38   1 H        0.924     0.055     2.260     2.351
    39   1 H        0.925     0.085     1.930     2.173
    40   1 H        0.924     0.053     2.284     2.364
    41   1 H        0.926     0.065     2.145     2.290
    42   1 H        0.923     0.123     1.590     1.972
    43   1 H        0.925     0.047     2.353     2.399
    44   1 H        0.925     0.053     2.282     2.362
    45   1 H        0.924     0.041     2.441     2.443
    46   1 H        0.925     0.046     2.368     2.407
    47   1 H        0.924     0.080     1.980     2.201
    48   1 H        0.924     0.063     2.166     2.301
    49   1 H        0.924     0.053     2.286     2.364
    50   1 H        0.924     0.049     2.329     2.386
    51   1 H        0.925     0.046     2.372     2.408
    52   1 H        0.924     0.049     2.336     2.390
    53   1 H        0.926     0.051     2.310     2.377
    54   1 H        0.926     0.060     2.200     2.319
    55   1 H        0.924     0.057     2.238     2.339
    56   1 H        0.924     0.058     2.224     2.332
    57   1 H        0.925     0.083     1.945     2.181
    58   1 H        0.925     0.082     1.956     2.187
    59   1 H        0.924     0.051     2.309     2.376
    60   1 H        0.924     0.054     2.272     2.357
    61   1 H        0.926     0.050     2.317     2.380
    62   1 H        0.924     0.036     2.501     2.473
    63   1 H        0.925     0.046     2.369     2.407
    64   1 H        0.925     0.057     2.240     2.340
    65   1 H        0.924     0.041     2.432     2.439
    66   1 H        0.925     0.066     2.127     2.281
    67   1 H        0.925     0.037     2.488     2.467
    68   1 H        0.925     0.055     2.258     2.350
    69   1 H        0.925     0.045     2.380     2.413
    70   1 H        0.925     0.036     2.504     2.475
    71   1 H        0.925     0.055     2.258     2.350
    72   1 H        0.860     0.163     1.316     1.797

Wiberg/Mayer (AO) data.
largest (>0.10) Wiberg bond orders for each atom

     #   Z sym  total        # sym  WBO       # sym  WBO       # sym  WBO
 ---------------------------------------------------------------------------
     1   7 N    3.012 --     2 C    1.911    72 H    0.934
     2   6 C    3.930 --     1 N    1.911     3 C    0.980    16 C    0.944
     3   6 C    3.978 --     4 C    0.993     2 C    0.980    14 C    0.961
                            31 C    0.922
     4   6 C    3.755 --     5 C    1.547    13 C    1.052     3 C    0.993
     5   6 C    3.975 --     4 C    1.547     6 C    1.292    34 H    0.954
     6   6 C    3.713 --     5 C    1.292     7 O    1.165     9 C    1.131
     7   8 O    2.291 --     6 C    1.165     8 C    0.968
     8   6 C    3.922 --    36 H    0.976    35 H    0.971    37 H    0.971
                             7 O    0.968
     9   6 C    3.935 --    12 C    1.571     6 C    1.131    10 O    1.100
    10   8 O    2.264 --     9 C    1.100    11 C    0.974    12 C    0.107
    11   6 C    3.929 --    39 H    0.977    10 O    0.974    40 H    0.974
                            38 H    0.974
    12   6 C    3.815 --     9 C    1.571    13 C    1.054    41 H    0.962
                            10 O    0.107
    13   6 C    3.981 --    12 C    1.054     4 C    1.052    47 H    0.913
                            42 H    0.884
    14   6 C    3.980 --    15 C    1.006    43 H    0.974    44 H    0.969
                             3 C    0.961
    15   6 C    3.974 --    14 C    1.006    45 H    0.976    46 H    0.974
                            16 C    0.964
    16   6 C    3.958 --    17 N    1.010    15 C    0.964     2 C    0.944
                            48 H    0.936
    17   7 N    3.145 --    30 C    1.016    18 C    1.014    16 C    1.010
    18   6 C    3.963 --    17 N    1.014    50 H    0.969    49 H    0.967
                            19 C    0.954
    19   6 C    3.971 --    20 C    1.018    51 H    0.974    52 H    0.968
                            18 C    0.954
    20   6 C    3.928 --    21 C    1.394    29 C    1.377    19 C    1.018
    21   6 C    3.930 --    22 C    1.423    20 C    1.394    53 H    0.967
    22   6 C    3.950 --    21 C    1.423    23 C    1.376    54 H    0.963
    23   6 C    3.874 --    22 C    1.376    26 C    1.211    24 O    1.114
    24   8 O    2.247 --    23 C    1.114    25 C    0.975
    25   6 C    3.926 --    57 H    0.976    24 O    0.975    55 H    0.972
                            56 H    0.971
    26   6 C    3.883 --    29 C    1.394    23 C    1.211    27 O    1.107
    27   8 O    2.248 --    26 C    1.107    28 C    0.978
    28   6 C    3.930 --    27 O    0.978    58 H    0.977    59 H    0.973
                            60 H    0.972
    29   6 C    3.951 --    26 C    1.394    20 C    1.377    61 H    0.962
    30   6 C    3.973 --    17 N    1.016    64 H    0.977    63 H    0.972
                            62 H    0.963
    31   6 C    3.974 --    32 C    1.011    33 C    1.010    65 H    0.961
                             3 C    0.922
    32   6 C    3.984 --    31 C    1.011    67 H    0.982    68 H    0.981
                            66 H    0.974
    33   6 C    3.989 --    31 C    1.010    69 H    0.983    71 H    0.981
                            70 H    0.979
    34   1 H    0.995 --     5 C    0.954
    35   1 H    0.990 --     8 C    0.971
    36   1 H    0.991 --     8 C    0.976
    37   1 H    0.990 --     8 C    0.971
    38   1 H    0.995 --    11 C    0.974
    39   1 H    0.992 --    11 C    0.977
    40   1 H    0.995 --    11 C    0.974
    41   1 H    0.994 --    12 C    0.962
    42   1 H    0.943 --    13 C    0.884
    43   1 H    0.996 --    14 C    0.974
    44   1 H    0.995 --    14 C    0.969
    45   1 H    0.998 --    15 C    0.976
    46   1 H    0.995 --    15 C    0.974
    47   1 H    0.964 --    13 C    0.913
    48   1 H    0.995 --    16 C    0.936
    49   1 H    0.994 --    18 C    0.967
    50   1 H    0.993 --    18 C    0.969
    51   1 H    0.996 --    19 C    0.974
    52   1 H    0.995 --    19 C    0.968
    53   1 H    0.996 --    21 C    0.967
    54   1 H    0.994 --    22 C    0.963
    55   1 H    0.990 --    25 C    0.972
    56   1 H    0.989 --    25 C    0.971
    57   1 H    0.992 --    25 C    0.976
    58   1 H    0.992 --    28 C    0.977
    59   1 H    0.992 --    28 C    0.973
    60   1 H    0.991 --    28 C    0.972
    61   1 H    0.996 --    29 C    0.962
    62   1 H    0.982 --    30 C    0.963
    63   1 H    0.995 --    30 C    0.972
    64   1 H    0.993 --    30 C    0.977
    65   1 H    0.995 --    31 C    0.961
    66   1 H    0.993 --    32 C    0.974
    67   1 H    0.997 --    32 C    0.982
    68   1 H    0.995 --    32 C    0.981
    69   1 H    0.997 --    33 C    0.983
    70   1 H    0.998 --    33 C    0.979
    71   1 H    0.995 --    33 C    0.981
    72   1 H    0.967 --     1 N    0.934
 ---------------------------------------------------------------------------

molecular dipole:
                 x           y           z       tot (Debye)
 q only:       -0.958      -0.152      -0.187
   full:       -0.534      -0.104      -0.539       1.945

           -------------------------------------------------
          | TOTAL ENERGY              -99.429163283210 Eh   |
          | GRADIENT NORM               0.007327438275 Eh/α |
          | HOMO-LUMO GAP               1.228714746087 eV   |
           -------------------------------------------------

 * finished run on 2024/04/06 at 11:16:36.886
