   * xtb version 6.6.1 (8d0f1dd) compiled by 'conda@1efc2f54142f' on 2023-08-01
          program call               : xtb xtbopt.xyz --opt crude --input .xc2 --gfn2

   ID    Z sym.   atoms
    1    6 C      1, 3, 5-7, 10, 11, 14
    2    7 N      2, 4, 9, 13
    3    8 O      8, 12
    4    1 H      15-25

          :  Hamiltonian                  GFN2-xTB          :
 * total energy  :   -42.1448859 Eh     change       -0.4973799E-12 Eh
   *** GEOMETRY OPTIMIZATION CONVERGED AFTER 1 ITERATIONS ***

 final structure:
================
25
 xtb: 6.6.1 (8d0f1dd)
C            4.04960284929038        0.81888724250859       -0.03195244726902
N            3.00512174022515       -0.16515808709787       -0.03658256282052
C            3.13030588529229       -1.47184850891146       -0.15502424106392
N            1.94016517301093       -2.07590104426089       -0.10436611490454
C            0.90832451476181       -1.12096224627390        0.05865531899822
C            1.63965919436230        0.14838173732289        0.10200593139908
C            1.12880644362447        1.36421738343063        0.24197523346740
O            0.62561363339723        2.39881715135537        0.35963516186507
N           -3.59491803979642        1.26998355133714       -0.12764986323969
C           -3.82382959013642        2.65167438244745       -0.04405487861529
C           -3.95235676471859        0.14134771997689       -0.06683523912593
O           -4.11211266735552       -1.00667616208177       -0.05409791214621
N           -0.33473991369260       -1.27704606923059        0.14539286475801
C           -1.01637316331211       -2.53070349329346        0.09746713443188
H            4.10119112321460        1.31156736267373        0.94228698225409
H            5.00560157206431        0.34226904618031       -0.24020196095622
H            3.85383307317322        1.57614521020173       -0.79352018443610
H            4.06972227028925       -1.98015236669882       -0.27569902054798
H           -2.85502382391264        3.15182398658121       -0.05105913374673
H           -4.40479644469170        2.99138812953756       -0.90419940159112
H           -4.35506214319421        2.91024195374321        0.87389448234402
H           -0.76749753071213       -3.15062037273748        0.96349780147975
H           -0.78307746001104       -3.08872690982944       -0.81403712683760
H           -2.08497070079781       -2.32033259937888        0.11750923210302
H            1.78724228372577       -3.07037845590171       -0.17186843789986

          :  Hamiltonian                  GFN2-xTB          :
         :: total energy             -42.144885932318 Eh    ::
         :: gradient norm              0.004004899435 Eh/a0 ::
         :: HOMO-LUMO gap              2.298905840606 eV    ::
         :: SCC energy               -42.766172050007 Eh    ::
         :: -> dispersion             -0.017543117246 Eh    ::
         :: repulsion energy           0.621238488615 Eh    ::

    * Orbital Energies and Occupations

         #    Occupation            Energy/Eh            Energy/eV
      -------------------------------------------------------------
         1        2.0000           -0.9098091             -24.7572
       ...           ...                  ...                  ...
        25        2.0000           -0.6494121             -17.6714
        26        2.0000           -0.6427034             -17.4889
        27        1.9999           -0.6406264             -17.4323
        28        1.9999           -0.6397060             -17.4073
        29        1.9997           -0.6150439             -16.7362
        30        1.9997           -0.6126897             -16.6721
        31        1.9997           -0.6124445             -16.6655
        32        1.9994           -0.6013109             -16.3625
        33        1.9991           -0.5953064             -16.1991
        34        1.9384           -0.5277732             -14.3614
        35        1.9300           -0.5256663             -14.3041
        36        1.9149           -0.5224589             -14.2168
        37        1.8962           -0.5191629             -14.1271 (HOMO)
        38        0.1618           -0.4346797             -11.8282 (LUMO)
        39        0.1581           -0.4342815             -11.8174
        40        0.0031           -0.3709890             -10.0951
        41        0.0000           -0.2893821              -7.8745
        42        0.0000           -0.2880349              -7.8378
        43        0.0000           -0.2711815              -7.3792
        44                         -0.1793692              -4.8809
        45                         -0.1449490              -3.9443
        46                         -0.0890032              -2.4219
        47                         -0.0615007              -1.6735
        48                         -0.0476607              -1.2969
       ...                                ...                  ...
        67                          1.2459280              33.9034
      -------------------------------------------------------------
                  HL-Gap            0.0844832 Eh            2.2989 eV

     #   Z          covCN         q      C6AA      α(0)
     1   6 C        3.691    -0.084    22.293     6.757
     2   7 N        2.802     0.058    20.220     6.679
     3   6 C        2.958     0.079    26.228     8.400
     4   7 N        2.772    -0.091    23.020     7.126
     5   6 C        2.927     0.155    24.637     8.140
     6   6 C        3.041    -0.021    28.485     8.754
     7   6 C        1.844     0.252    25.333     8.131
     8   8 O        0.856    -0.120    16.808     5.497
     9   7 N        1.820    -0.140    24.819     7.382
    10   6 C        3.685    -0.032    21.347     6.615
    11   6 C        1.769     0.313    24.196     7.953
    12   8 O        0.856    -0.257    19.020     5.847
    13   7 N        1.824    -0.212    26.443     7.620
    14   6 C        3.701    -0.042    21.482     6.628
    15   1 H        0.924     0.102     1.768     2.079
    16   1 H        0.925     0.103     1.761     2.075
    17   1 H        0.924     0.101     1.778     2.085
    18   1 H        0.926     0.114     1.665     2.018
    19   1 H        0.924     0.093     1.852     2.128
    20   1 H        0.924     0.090     1.875     2.141
    21   1 H        0.924     0.087     1.908     2.160
    22   1 H        0.924     0.068     2.108     2.271
    23   1 H        0.924     0.061     2.188     2.313
    24   1 H        0.925     0.102     1.763     2.076
    25   1 H        0.860     0.219     1.012     1.576

Wiberg/Mayer (AO) data.
largest (>0.10) Wiberg bond orders for each atom

     #   Z sym  total        # sym  WBO       # sym  WBO       # sym  WBO
 ---------------------------------------------------------------------------
     1   6 C    3.934 --     2 N    0.994    16 H    0.973    17 H    0.964
                            15 H    0.961
     2   7 N    3.619 --     3 C    1.402     6 C    1.041     1 C    0.994
                             4 N    0.112
     3   6 C    3.841 --     2 N    1.402     4 N    1.319    18 H    0.949
     4   7 N    3.537 --     3 C    1.319     5 C    1.031    25 H    0.923
                             2 N    0.112
     5   6 C    3.927 --    13 N    1.709     6 C    1.043     4 N    1.031
     6   6 C    3.872 --     7 C    1.479     5 C    1.043     2 N    1.041
                             8 O    0.151
     7   6 C    3.700 --     8 O    2.080     6 C    1.479
     8   8 O    2.354 --     7 C    2.080     6 C    0.151
     9   7 N    3.361 --    11 C    1.986    10 C    1.026    12 O    0.348
    10   6 C    3.922 --     9 N    1.026    19 H    0.959    21 H    0.951
                            20 H    0.949
    11   6 C    3.936 --     9 N    1.986    12 O    1.881
    12   8 O    2.272 --    11 C    1.881     9 N    0.348
    13   7 N    3.016 --     5 C    1.709    14 C    1.028
    14   6 C    3.941 --    13 N    1.028    24 H    0.961    23 H    0.955
                            22 H    0.951
    15   1 H    0.986 --     1 C    0.961
    16   1 H    0.989 --     1 C    0.973
    17   1 H    0.987 --     1 C    0.964
    18   1 H    0.984 --     3 C    0.949
    19   1 H    0.979 --    10 C    0.959
    20   1 H    0.974 --    10 C    0.949
    21   1 H    0.976 --    10 C    0.951
    22   1 H    0.979 --    14 C    0.951
    23   1 H    0.980 --    14 C    0.955
    24   1 H    0.977 --    14 C    0.961
    25   1 H    0.950 --     4 N    0.923
 ---------------------------------------------------------------------------

molecular dipole:
                 x           y           z       tot (Debye)
 q only:        3.027      -0.199      -0.114
   full:        3.304      -0.615      -0.156       8.553

           -------------------------------------------------
          | TOTAL ENERGY              -42.144885932318 Eh   |
          | GRADIENT NORM               0.004004899435 Eh/α |
          | HOMO-LUMO GAP               2.298905840606 eV   |
           -------------------------------------------------

 * finished run on 2024/06/05 at 19:59:16.338
