   * xtb version 6.6.1 (8d0f1dd) compiled by 'conda@1efc2f54142f' on 2023-08-01
          program call               : xtb struc.xyz --opt loose --input .xc1 --gfn2

   ID    Z sym.   atoms
    1    6 C      1, 3, 5-7, 10, 11, 14
    2    7 N      2, 4, 9, 13
    3    8 O      8, 12
    4    1 H      15-25
constraining bond 2 9 to    5.8400000 Å, actual value:    3.6850118 Å

          :  Hamiltonian                  GFN2-xTB          :
 * total energy  :   -33.9558935 Eh     change       -0.6650680E-10 Eh
 * total energy  :   -37.4253665 Eh     change       -0.3469473E+01 Eh
 * total energy  :   -39.7920734 Eh     change       -0.2366707E+01 Eh
 * total energy  :   -41.1255043 Eh     change       -0.1333431E+01 Eh
 * total energy  :   -41.6604108 Eh     change       -0.5349065E+00 Eh
 * total energy  :   -41.7657646 Eh     change       -0.1053539E+00 Eh
 * total energy  :   -41.8210321 Eh     change       -0.5526747E-01 Eh
 * total energy  :   -41.8899621 Eh     change       -0.6893001E-01 Eh
 * total energy  :   -41.9361010 Eh     change       -0.4613886E-01 Eh
 * total energy  :   -41.9695042 Eh     change       -0.3340323E-01 Eh
 * total energy  :   -42.1570102 Eh     change       -0.1504895E-02 Eh
 * total energy  :   -42.1578660 Eh     change       -0.8557990E-03 Eh
 * total energy  :   -42.1579092 Eh     change       -0.4323895E-04 Eh
 * total energy  :   -42.1583692 Eh     change       -0.4600255E-03 Eh
 * total energy  :   -42.1584971 Eh     change       -0.1279082E-03 Eh
 * total energy  :   -42.1585750 Eh     change       -0.7784899E-04 Eh
 * total energy  :   -42.1586857 Eh     change       -0.1107445E-03 Eh
 * total energy  :   -42.1587369 Eh     change       -0.5119569E-04 Eh
 * total energy  :   -42.1587630 Eh     change       -0.2603404E-04 Eh
   *** GEOMETRY OPTIMIZATION CONVERGED AFTER 58 ITERATIONS ***

 final structure:
================
25
 xtb: 6.6.1 (8d0f1dd)
C            4.59841534044330        0.20579673762349       -0.00768427983079
N            3.71834400128736       -0.68601952467892       -0.09080660119060
C            2.77759578490096       -1.52763900724214        0.02389000352979
N            1.42811333393467       -1.43202356824010        0.02457614173221
C            0.43225216795257       -0.44025075842197        0.00018990062648
C            0.62259646044540        0.90321266576164        0.00455791448926
C           -0.49576666626342        1.83757947744219        0.00574669420769
O           -0.35049042448306        3.03835605940016        0.01084079248260
N           -1.77652728910229        1.26488261464308        0.00672477703996
C           -2.94132570510725        2.12503786106094        0.01223974477999
C           -1.99054005870981       -0.08829849801225       -0.00634212384012
O           -3.09723204684157       -0.56257830572293       -0.01114499974560
N           -0.85303190546808       -0.93065130417307       -0.01375382832639
C           -1.14781354377222       -2.35448538436380       -0.03489680881062
H            4.88353602930965        0.61989187092187        0.95080184475640
H            5.11899949580879        0.53472296351016       -0.89912834481138
H            1.60288336341196        1.34641695302220        0.01148513397180
H            3.11270977225937       -2.56486570999725        0.07181641411054
H           -2.59461198714400        3.15633840759566        0.02802162866306
H           -3.54335328122820        1.93921570417239       -0.87774369115338
H           -3.55288087838875        1.91410152850076        0.89000231110442
H           -0.80306348973415       -2.85125125757986        0.87475747423887
H           -0.74683880785662       -2.83333819565023       -0.93047731364391
H           -2.23544175382208       -2.44572611363655       -0.06728016433983
H            0.99390360226773       -2.35018667433547        0.05477899785925

          :  Hamiltonian                  GFN2-xTB          :
         :: total energy             -42.158762956904 Eh    ::
         :: gradient norm              0.002789065247 Eh/a0 ::
         :: HOMO-LUMO gap              2.262671077570 eV    ::
         :: SCC energy               -42.708539925633 Eh    ::
         :: -> dispersion             -0.021024535425 Eh    ::
         :: repulsion energy           0.549622633261 Eh    ::

    * Orbital Energies and Occupations

         #    Occupation            Energy/Eh            Energy/eV
      -------------------------------------------------------------
         1        2.0000           -0.8770498             -23.8657
       ...           ...                  ...                  ...
        25        1.9999           -0.6592694             -17.9396
        26        1.9999           -0.6550363             -17.8244
        27        1.9998           -0.6441153             -17.5273
        28        1.9998           -0.6380360             -17.3618
        29        1.9997           -0.6340522             -17.2534
        30        1.9992           -0.6181744             -16.8214
        31        1.9992           -0.6172650             -16.7966
        32        1.9951           -0.5890770             -16.0296
        33        1.9947           -0.5880338             -16.0012
        34        1.9797           -0.5665412             -15.4164
        35        1.9376           -0.5484404             -14.9238
        36        1.9214           -0.5446667             -14.8211
        37        1.9090           -0.5422334             -14.7549 (HOMO)
        38        0.1981           -0.4590818             -12.4923 (LUMO)
        39        0.0649           -0.4402821             -11.9807
        40        0.0016           -0.3811912             -10.3727
        41        0.0005           -0.3632227              -9.8838
        42        0.0000           -0.2760177              -7.5108
        43                         -0.2072392              -5.6393
        44                         -0.1718776              -4.6770
        45                         -0.1275877              -3.4718
        46                         -0.1186399              -3.2284
        47                         -0.0941058              -2.5607
        48                         -0.0481323              -1.3097
       ...                                ...                  ...
        67                          0.6916909              18.8219
      -------------------------------------------------------------
                  HL-Gap            0.0831516 Eh            2.2627 eV

     #   Z          covCN         q      C6AA      α(0)
     1   6 C        2.764     0.017    27.622     8.607
     2   7 N        1.823     0.004    21.874     6.930
     3   6 C        2.749     0.111    25.522     8.272
     4   7 N        2.689    -0.101    23.221     7.157
     5   6 C        2.821     0.127    25.217     8.228
     6   6 C        2.905    -0.105    30.652     9.078
     7   6 C        2.768     0.275    22.358     7.744
     8   8 O        0.859    -0.342    20.553     6.078
     9   7 N        2.738    -0.070    22.604     7.061
    10   6 C        3.703    -0.059    21.787     6.674
    11   6 C        2.720     0.319    21.579     7.604
    12   8 O        0.860    -0.372    21.133     6.163
    13   7 N        2.749    -0.071    22.620     7.064
    14   6 C        3.698    -0.078    22.164     6.733
    15   1 H        0.925     0.140     1.465     1.892
    16   1 H        0.925     0.145     1.427     1.868
    17   1 H        0.926     0.092     1.858     2.131
    18   1 H        0.924     0.127     1.556     1.951
    19   1 H        0.925     0.114     1.660     2.015
    20   1 H        0.924     0.100     1.783     2.088
    21   1 H        0.924     0.100     1.783     2.088
    22   1 H        0.924     0.077     2.009     2.217
    23   1 H        0.924     0.077     2.005     2.215
    24   1 H        0.924     0.137     1.485     1.906
    25   1 H        0.860     0.236     0.940     1.519

Wiberg/Mayer (AO) data.
largest (>0.10) Wiberg bond orders for each atom

     #   Z sym  total        # sym  WBO       # sym  WBO       # sym  WBO
 ---------------------------------------------------------------------------
     1   6 C    3.713 --     2 N    1.753    16 H    0.928    15 H    0.923
     2   7 N    3.511 --     1 C    1.753     3 C    1.581     4 N    0.131
     3   6 C    3.902 --     2 N    1.581     4 N    1.264    18 H    0.910
     4   7 N    3.519 --     3 C    1.264     5 C    1.075    25 H    0.892
                             2 N    0.131
     5   6 C    3.926 --     6 C    1.545    13 N    1.169     4 N    1.075
     6   6 C    3.877 --     5 C    1.545     7 C    1.088    17 H    0.959
     7   6 C    3.947 --     8 O    1.692     6 C    1.088     9 N    1.082
     8   8 O    1.984 --     7 C    1.692     9 N    0.126
     9   7 N    3.529 --    11 C    1.150     7 C    1.082    10 C    0.978
                            12 O    0.131     8 O    0.126
    10   6 C    3.902 --     9 N    0.978    19 H    0.965    21 H    0.957
                            20 H    0.957
    11   6 C    3.958 --    12 O    1.675     9 N    1.150    13 N    1.047
    12   8 O    2.018 --    11 C    1.675     9 N    0.131    13 N    0.119
    13   7 N    3.510 --     5 C    1.169    11 C    1.047    14 C    0.984
                            12 O    0.119
    14   6 C    3.930 --    13 N    0.984    23 H    0.965    22 H    0.963
                            24 H    0.950
    15   1 H    0.974 --     1 C    0.923
    16   1 H    0.974 --     1 C    0.928
    17   1 H    0.990 --     6 C    0.959
    18   1 H    0.971 --     3 C    0.910
    19   1 H    0.984 --    10 C    0.965
    20   1 H    0.977 --    10 C    0.957
    21   1 H    0.977 --    10 C    0.957
    22   1 H    0.988 --    14 C    0.963
    23   1 H    0.988 --    14 C    0.965
    24   1 H    0.980 --    14 C    0.950
    25   1 H    0.943 --     4 N    0.892
 ---------------------------------------------------------------------------

molecular dipole:
                 x           y           z       tot (Debye)
 q only:        3.710      -2.101       0.034
   full:        3.980      -2.372       0.065      11.777

           -------------------------------------------------
          | TOTAL ENERGY              -42.158762956904 Eh   |
          | GRADIENT NORM               0.002789065247 Eh/α |
          | HOMO-LUMO GAP               2.262671077570 eV   |
           -------------------------------------------------

 * finished run on 2024/06/05 at 19:57:50.459
