   * xtb version 6.6.1 (8d0f1dd) compiled by 'conda@1efc2f54142f' on 2023-08-01
          program call               : xtb struc.xyz --opt loose --input .xc1 --gfn2

   ID    Z sym.   atoms
    1    6 C      1, 3, 5-7, 10, 11, 14
    2    7 N      2, 4, 9, 13
    3    8 O      8, 12
    4    1 H      15-25
constraining bond 5 18 to    3.7133300 Å, actual value:    3.2287314 Å

          :  Hamiltonian                  GFN2-xTB          :
 * total energy  :   -42.6671654 Eh     change       -0.6650680E-10 Eh
 * total energy  :   -44.5259095 Eh     change       -0.1858744E+01 Eh
 * total energy  :   -47.1699021 Eh     change       -0.2643993E+01 Eh
 * total energy  :   -50.4723375 Eh     change       -0.3302435E+01 Eh
 * total energy  :   -54.2218862 Eh     change       -0.3749549E+01 Eh
 * total energy  :   -57.0676458 Eh     change       -0.2845760E+01 Eh
 * total energy  :   -58.1095547 Eh     change       -0.1041909E+01 Eh
 * total energy  :   -58.8673022 Eh     change       -0.7577476E+00 Eh
 * total energy  :   -55.7156112 Eh     change        0.3151691E+01 Eh
 * total energy  :   -59.0617639 Eh     change       -0.3346153E+01 Eh
 * total energy  :   -59.7087194 Eh     change       -0.2562987E-02 Eh
 * total energy  :   -59.7099034 Eh     change       -0.1184018E-02 Eh
 * total energy  :   -59.7103137 Eh     change       -0.4103096E-03 Eh
 * total energy  :   -59.7107872 Eh     change       -0.4735019E-03 Eh
 * total energy  :   -59.7111130 Eh     change       -0.3258333E-03 Eh
 * total energy  :   -59.7114587 Eh     change       -0.3456265E-03 Eh
 * total energy  :   -59.7116516 Eh     change       -0.1929978E-03 Eh
 * total energy  :   -59.7117395 Eh     change       -0.8785593E-04 Eh
 * total energy  :   -59.7117782 Eh     change       -0.3867701E-04 Eh
   *** GEOMETRY OPTIMIZATION CONVERGED AFTER 78 ITERATIONS ***

 final structure:
================
25
 xtb: 6.6.1 (8d0f1dd)
C            3.11657305734356        1.11889073244892        0.57093563704215
N            2.26578609020666        0.06357305392820        0.11011412966002
C            2.60837375195250       -1.25926491988537        0.21250274006905
N            1.61337019892359       -1.97693840324696       -0.22577969952198
C            0.48450076640379       -1.15711937577040       -0.82694624828982
C            1.04508669771244        0.20377511216793       -0.42619850236645
C            0.19228569522271        1.38063890673992       -0.38550153452131
O            0.59257968880683        2.52289576779807       -0.40549369883096
N           -1.14774112390294        1.04374152669271       -0.27113778983729
C           -2.11793391721828        2.12038677287041       -0.22616241265644
C           -1.62978760120619       -0.21815569722833        0.11666850136903
O           -2.74466036167162       -0.34232213032768        0.54696961017384
N           -0.77175199931594       -1.28331519199971       -0.00965433735555
C           -1.24289642558120       -2.61608854818599        0.28319914188383
H            3.34796097014312        0.96664069785289        1.62710179345934
H            4.05923464107217        1.09023554937640        0.01998018354385
H            2.63528003430277        2.08465742858700        0.42068612449164
H            0.41975676745336       -1.24614211806892       -1.23687613087622
H           -1.60211553790112        3.05876503300996       -0.41889335229841
H           -2.88536253062705        1.94646890528417       -0.98245488469841
H           -2.60850472670586        2.15016255639460        0.74867920091029
H           -0.63606813537930       -3.06329853081391        1.07291206590396
H           -1.20567368709572       -3.24424388609967       -0.60926116484084
H           -2.27419942344692       -2.54302623729440        0.62703056814589
H            1.64633862460676       -2.98267846263254       -0.30124832265701

          :  Hamiltonian                  GFN2-xTB          :
         :: total energy             -59.711778183059 Eh    ::
         :: gradient norm              0.003448456008 Eh/a0 ::
         :: HOMO-LUMO gap              1.082025715830 eV    ::
         :: SCC energy               -42.630643982754 Eh    ::
         :: -> dispersion             -0.022832455731 Eh    ::
         :: repulsion energy           2.232280960771 Eh    ::

    * Orbital Energies and Occupations

         #    Occupation            Energy/Eh            Energy/eV
      -------------------------------------------------------------
         1        2.0000           -0.9195523             -25.0223
       ...           ...                  ...                  ...
        25        1.9998           -0.6766156             -18.4116
        26        1.9996           -0.6685846             -18.1931
        27        1.9994           -0.6613707             -17.9968
        28        1.9985           -0.6478380             -17.6286
        29        1.9976           -0.6397297             -17.4079
        30        1.9966           -0.6346314             -17.2692
        31        1.9931           -0.6232011             -16.9582
        32        1.9907           -0.6185565             -16.8318
        33        1.9648           -0.5971902             -16.2504
        34        1.9418           -0.5890533             -16.0290
        35        1.9297           -0.5859736             -15.9452
        36        1.8798           -0.5770614             -15.7026
        37        1.6914           -0.5604585             -15.2509 (HOMO)
        38        0.6157           -0.5206948             -14.1688 (LUMO)
        39        0.0017           -0.4212807             -11.4636
        40        0.0002           -0.3895101             -10.5991
        41        0.0000           -0.3483431              -9.4789
        42                         -0.2617412              -7.1223
        43                         -0.2234887              -6.0814
        44                         -0.1820546              -4.9540
        45                         -0.1648103              -4.4847
        46                         -0.1454461              -3.9578
        47                         -0.0919140              -2.5011
        48                         -0.0405788              -1.1042
       ...                                ...                  ...
        67                         10.3530467             281.7207
      -------------------------------------------------------------
                  HL-Gap            0.0397637 Eh            1.0820 eV

     #   Z          covCN         q      C6AA      α(0)
     1   6 C        3.695    -0.090    22.399     6.771
     2   7 N        2.802     0.096    19.581     6.572
     3   6 C        1.958    -0.030    31.880     9.118
     4   7 N        2.774    -0.085    22.901     7.107
     5   6 C        3.755     0.047    19.844     6.352
     6   6 C        3.039     0.017    27.596     8.616
     7   6 C        2.763     0.269    22.453     7.760
     8   8 O        0.858    -0.332    20.372     6.051
     9   7 N        2.745    -0.081    22.813     7.094
    10   6 C        3.706    -0.061    21.824     6.678
    11   6 C        2.708     0.322    21.533     7.596
    12   8 O        0.860    -0.339    20.507     6.072
    13   7 N        2.739    -0.111    23.422     7.188
    14   6 C        3.694    -0.066    21.949     6.703
    15   1 H        0.924     0.123     1.590     1.972
    16   1 H        0.924     0.129     1.543     1.943
    17   1 H        0.925     0.125     1.572     1.961
    18   1 H        0.941     0.183     1.189     1.705
    19   1 H        0.925     0.120     1.617     1.988
    20   1 H        0.924     0.113     1.669     2.020
    21   1 H        0.924     0.117     1.638     2.001
    22   1 H        0.924     0.092     1.857     2.131
    23   1 H        0.924     0.088     1.895     2.153
    24   1 H        0.925     0.127     1.557     1.951
    25   1 H        0.860     0.228     0.975     1.547

Wiberg/Mayer (AO) data.
largest (>0.10) Wiberg bond orders for each atom

     #   Z sym  total        # sym  WBO       # sym  WBO       # sym  WBO
 ---------------------------------------------------------------------------
     1   6 C    3.901 --     2 N    1.001    17 H    0.960    15 H    0.943
                            16 H    0.936
     2   7 N    3.607 --     6 C    1.336     3 C    1.169     1 C    1.001
     3   6 C    2.830 --     4 N    1.536     2 N    1.169
     4   7 N    3.488 --     3 C    1.536     5 C    0.922    25 H    0.921
     5   6 C    3.899 --     6 C    1.005    13 N    0.925    18 H    0.923
                             4 N    0.922
     6   6 C    3.611 --     2 N    1.336     7 C    1.057     5 C    1.005
     7   6 C    3.930 --     8 O    1.672     9 N    1.114     6 C    1.057
     8   8 O    1.961 --     7 C    1.672     9 N    0.140
     9   7 N    3.452 --     7 C    1.114    11 C    1.050    10 C    0.982
                             8 O    0.140
    10   6 C    3.873 --     9 N    0.982    19 H    0.962    21 H    0.942
                            20 H    0.941
    11   6 C    3.955 --    12 O    1.681    13 N    1.145     9 N    1.050
    12   8 O    2.002 --    11 C    1.681    13 N    0.141
    13   7 N    3.304 --    11 C    1.145    14 C    0.990     5 C    0.925
                            12 O    0.141
    14   6 C    3.903 --    13 N    0.990    23 H    0.959    22 H    0.956
                            24 H    0.955
    15   1 H    0.972 --     1 C    0.943
    16   1 H    0.968 --     1 C    0.936
    17   1 H    0.981 --     1 C    0.960
    18   1 H    0.955 --     5 C    0.923
    19   1 H    0.979 --    10 C    0.962
    20   1 H    0.958 --    10 C    0.941
    21   1 H    0.960 --    10 C    0.942
    22   1 H    0.971 --    14 C    0.956
    23   1 H    0.974 --    14 C    0.959
    24   1 H    0.978 --    14 C    0.955
    25   1 H    0.947 --     4 N    0.921
 ---------------------------------------------------------------------------

molecular dipole:
                 x           y           z       tot (Debye)
 q only:        1.610      -1.319      -0.304
   full:        1.412      -1.535      -0.573       5.499

           -------------------------------------------------
          | TOTAL ENERGY              -59.711778183059 Eh   |
          | GRADIENT NORM               0.003448456008 Eh/α |
          | HOMO-LUMO GAP               1.082025715830 eV   |
           -------------------------------------------------

 * finished run on 2024/06/05 at 19:58:09.469
