   * xtb version 6.6.1 (8d0f1dd) compiled by 'conda@1efc2f54142f' on 2023-08-01
          program call               : xtb xtbopt.xyz --opt crude --input .xc2 --gfn2

   ID    Z sym.   atoms
    1    6 C      1, 3, 5-7, 10, 11, 14
    2    7 N      2, 4, 9, 13
    3    8 O      8, 12
    4    1 H      15-25

          :  Hamiltonian                  GFN2-xTB          :
 * total energy  :   -40.2369724 Eh     change       -0.1054445E-09 Eh
 * total energy  :   -42.0715111 Eh     change       -0.1834539E+01 Eh
 * total energy  :   -42.0951295 Eh     change       -0.2361832E-01 Eh
 * total energy  :   -42.0977038 Eh     change       -0.2574340E-02 Eh
 * total energy  :   -42.0996285 Eh     change       -0.1924707E-02 Eh
 * total energy  :   -42.1004444 Eh     change       -0.8158864E-03 Eh
 * total energy  :   -42.1018906 Eh     change       -0.1446163E-02 Eh
 * total energy  :   -42.1032417 Eh     change       -0.1351171E-02 Eh
 * total energy  :   -42.1043306 Eh     change       -0.1088899E-02 Eh
 * total energy  :   -42.1046881 Eh     change       -0.3574405E-03 Eh
 * total energy  :   -42.1080807 Eh     change       -0.4828071E-03 Eh
 * total energy  :   -42.1095680 Eh     change       -0.1487271E-02 Eh
 * total energy  :   -42.1122812 Eh     change       -0.2713194E-02 Eh
 * total energy  :   -42.1157116 Eh     change       -0.3430437E-02 Eh
 * total energy  :   -42.1206608 Eh     change       -0.4949176E-02 Eh
 * total energy  :   -42.1245218 Eh     change       -0.3860952E-02 Eh
 * total energy  :   -42.1270533 Eh     change       -0.2531574E-02 Eh
 * total energy  :   -42.1278704 Eh     change       -0.8171021E-03 Eh
 * total energy  :   -42.1282347 Eh     change       -0.3642630E-03 Eh
   *** GEOMETRY OPTIMIZATION CONVERGED AFTER 27 ITERATIONS ***

 final structure:
================
25
 xtb: 6.6.1 (8d0f1dd)
C            2.93565914920128        1.31386949967163       -0.08077335164885
N            2.21788234474835        0.06751557958858       -0.04161384093837
C            2.73837432943255       -1.15639905595650        0.04665824041569
N            1.74174377658822       -2.07534338311461        0.06210601281115
C            0.55094183676728       -1.41048125214440       -0.01659421681101
C            0.84989400488444       -0.05592583456901       -0.08081962422094
C           -0.20399493367285        0.93651745741063       -0.11414492522988
O           -0.07861124261759        2.13931917072711       -0.18966387946049
N           -1.45252919682046        0.30885218912402       -0.04058984225248
C           -3.01605193279065        3.36198062711784        0.13826007159517
C           -1.74372598478792       -0.98425915440423       -0.01306954301863
O           -3.40208792008147        2.22441607955421        0.14078886372513
N           -0.72346930330893       -1.87217889313452       -0.02012636263788
C           -1.01657189826509       -3.28944233971548        0.00293578032532
H            3.53675143658586        1.43435740001128        0.82097664237198
H            3.59390899045207        1.34639085230591       -0.94947276769586
H            2.21364042115432        2.12768726132694       -0.14626906556130
H            3.78265858596855       -1.38777965877823        0.10540500344942
H           -2.26473134544587        0.96890019541034       -0.01894481387059
H           -3.68520275813605        4.20241548340195        0.35677240681845
H           -1.96986737215002        3.62746190405274       -0.07983105963784
H           -0.59840367524126       -3.75639637467291        0.89580694694246
H           -0.62138867910969       -3.77927109713099       -0.88811888938604
H           -2.09848554398307       -3.39967608080704        0.01831863121853
H            1.87409842476011       -3.07429203375167        0.12317520074238

          :  Hamiltonian                  GFN2-xTB          :
         :: total energy             -42.128234698512 Eh    ::
         :: gradient norm              0.005221336311 Eh/a0 ::
         :: HOMO-LUMO gap              2.036166965332 eV    ::
         :: SCC energy               -42.650415033683 Eh    ::
         :: -> dispersion             -0.021289330039 Eh    ::
         :: repulsion energy           0.522174342938 Eh    ::

    * Orbital Energies and Occupations

         #    Occupation            Energy/Eh            Energy/eV
      -------------------------------------------------------------
         1        2.0000           -0.9011169             -24.5206
       ...           ...                  ...                  ...
        25        2.0000           -0.6679721             -18.1764
        26        2.0000           -0.6605292             -17.9739
        27        2.0000           -0.6473595             -17.6155
        28        2.0000           -0.6333054             -17.2331
        29        1.9999           -0.6242143             -16.9857
        30        1.9999           -0.6188444             -16.8396
        31        1.9999           -0.6160760             -16.7643
        32        1.9998           -0.6105880             -16.6149
        33        1.9996           -0.6013243             -16.3629
        34        1.9963           -0.5641076             -15.3501
        35        1.9920           -0.5518160             -15.0157
        36        1.9549           -0.5241483             -14.2628
        37        1.8256           -0.5016468             -13.6505 (HOMO)
        38        0.1699           -0.4268190             -11.6143 (LUMO)
        39        0.0294           -0.3978864             -10.8270
        40        0.0249           -0.3952149             -10.7543
        41        0.0079           -0.3769189             -10.2565
        42        0.0000           -0.2753180              -7.4918
        43                         -0.1893694              -5.1530
        44                         -0.1702793              -4.6335
        45                         -0.1212457              -3.2993
        46                         -0.1024487              -2.7878
        47                         -0.0422609              -1.1500
        48                         -0.0338272              -0.9205
       ...                                ...                  ...
        67                          0.5439379              14.8013
      -------------------------------------------------------------
                  HL-Gap            0.0748278 Eh            2.0362 eV

     #   Z          covCN         q      C6AA      α(0)
     1   6 C        3.691    -0.089    22.386     6.771
     2   7 N        2.828     0.068    20.047     6.650
     3   6 C        3.044     0.048    26.886     8.504
     4   7 N        2.791    -0.067    22.538     7.051
     5   6 C        3.048     0.107    25.594     8.297
     6   6 C        3.118    -0.009    28.066     8.677
     7   6 C        2.757     0.269    22.450     7.759
     8   8 O        0.857    -0.397    21.627     6.235
     9   7 N        2.706    -0.114    23.486     7.198
    10   6 C        2.702     0.175    24.222     8.055
    11   6 C        1.878    -0.066    32.928     9.268
    12   8 O        0.856    -0.267    19.205     5.875
    13   7 N        2.745     0.028    20.765     6.768
    14   6 C        3.703    -0.079    22.165     6.731
    15   1 H        0.924     0.101     1.774     2.083
    16   1 H        0.924     0.102     1.766     2.078
    17   1 H        0.925     0.130     1.532     1.935
    18   1 H        0.926     0.117     1.637     2.001
    19   1 H        0.857     0.274     0.798     1.399
    20   1 H        0.924     0.082     1.958     2.188
    21   1 H        0.923     0.087     1.905     2.159
    22   1 H        0.924     0.078     2.005     2.214
    23   1 H        0.924     0.080     1.983     2.202
    24   1 H        0.925     0.118     1.630     1.996
    25   1 H        0.860     0.224     0.992     1.560

Wiberg/Mayer (AO) data.
largest (>0.10) Wiberg bond orders for each atom

     #   Z sym  total        # sym  WBO       # sym  WBO       # sym  WBO
 ---------------------------------------------------------------------------
     1   6 C    3.921 --     2 N    0.987    17 H    0.963    15 H    0.962
                            16 H    0.961
     2   7 N    3.648 --     3 C    1.368     6 C    1.157     1 C    0.987
     3   6 C    3.807 --     2 N    1.368     4 N    1.265    18 H    0.955
     4   7 N    3.567 --     3 C    1.265     5 C    1.184    25 H    0.922
     5   6 C    3.933 --     6 C    1.362    13 N    1.185     4 N    1.184
     6   6 C    3.916 --     5 C    1.362     2 N    1.157     7 C    1.081
     7   6 C    3.920 --     8 O    1.671     9 N    1.083     6 C    1.081
     8   8 O    1.996 --     7 C    1.671     9 N    0.129
     9   7 N    3.580 --    11 C    1.415     7 C    1.083    19 H    0.817
                             8 O    0.129
    10   6 C    3.830 --    12 O    1.956    20 H    0.937    21 H    0.931
    11   6 C    2.857 --     9 N    1.415    13 N    1.264
    12   8 O    2.138 --    10 C    1.956
    13   7 N    3.630 --    11 C    1.264     5 C    1.185    14 C    0.984
    14   6 C    3.939 --    13 N    0.984    24 H    0.971    22 H    0.971
                            23 H    0.971
    15   1 H    0.986 --     1 C    0.962
    16   1 H    0.986 --     1 C    0.961
    17   1 H    0.983 --     1 C    0.963
    18   1 H    0.985 --     3 C    0.955
    19   1 H    0.922 --     9 N    0.817
    20   1 H    0.979 --    10 C    0.937
    21   1 H    0.978 --    10 C    0.931
    22   1 H    0.991 --    14 C    0.971
    23   1 H    0.991 --    14 C    0.971
    24   1 H    0.985 --    14 C    0.971
    25   1 H    0.949 --     4 N    0.922
 ---------------------------------------------------------------------------

molecular dipole:
                 x           y           z       tot (Debye)
 q only:        2.069      -1.704       0.118
   full:        2.736      -1.809       0.136       8.344

           -------------------------------------------------
          | TOTAL ENERGY              -42.128234698512 Eh   |
          | GRADIENT NORM               0.005221336311 Eh/α |
          | HOMO-LUMO GAP               2.036166965332 eV   |
           -------------------------------------------------

 * finished run on 2024/06/05 at 20:00:19.572
