   * xtb version 6.6.1 (8d0f1dd) compiled by 'conda@1efc2f54142f' on 2023-08-01
          program call               : xtb xtbopt.xyz --opt crude --input .xc2 --gfn2

   ID    Z sym.   atoms
    1    6 C      1, 3, 5-7, 10, 11, 14
    2    7 N      2, 4, 9, 13
    3    8 O      8, 12
    4    1 H      15-25
########################################################################
[WARNING] Please study the warnings concerning your input carefully
-1- readin_getIntValue: could not parse ''
########################################################################

          :  Hamiltonian                  GFN2-xTB          :
 * total energy  :   -42.0996379 Eh     change       -0.6323830E-12 Eh
 * total energy  :   -42.1015822 Eh     change       -0.1944253E-02 Eh
 * total energy  :   -42.1023152 Eh     change       -0.7330694E-03 Eh
 * total energy  :   -42.1024573 Eh     change       -0.1420628E-03 Eh
   *** GEOMETRY OPTIMIZATION CONVERGED AFTER 4 ITERATIONS ***

 final structure:
================
25
 xtb: 6.6.1 (8d0f1dd)
C            2.08044426695973        1.54919130288744       -0.32372314749499
N            1.69372391804212        0.16085071812612       -0.30164324502839
C            2.50797447220531       -0.81236827847176       -0.67865464073523
N            1.93720581641580       -1.99465686091003       -0.46933265939738
C            0.67349026218661       -1.82724509288091        0.11293886247443
C            0.51827927965739       -0.39204457936681        0.19766706993657
C           -0.57555282640392        0.30789046653016        0.79623427928969
O           -1.40282394667086       -0.20076278392528        1.53169444366136
N           -0.65486239963113        1.71626918683686        0.54394605503915
C           -1.13742403800478        2.16910015510918       -0.75471877454779
C           -2.54901190341642        1.90348459993103       -0.90010490749427
O           -3.61010241574608        1.56866338946210       -0.58516115633417
N            0.01959123134854       -2.88941125860644        0.37897276279649
C           -1.24298681969838       -3.09588822397513        0.96422139715051
H            1.59074422599984        2.08148104922469        0.48818711574418
H            3.16001472072873        1.62036443387041       -0.20258302163371
H            1.80983649395274        2.01600411759969       -1.27207583804834
H            3.49045687924054       -0.66155372499237       -1.08364760404785
H           -1.19321839642497        2.13853084496187        1.29894591598771
H           -0.58479773911692        1.67206223426108       -1.56001194449091
H           -0.97061609898630        3.25177670717833       -0.84215140099182
H           -1.13735309661755       -3.90237715549000        1.69440953775256
H           -1.93479377228950       -3.44551546149116        0.19269226646208
H           -1.65749026992635       -2.20812947773624        1.45029524665094
H            2.32970367029754       -2.90747776652820       -0.64522499480150

          :  Hamiltonian                  GFN2-xTB          :
         :: total energy             -42.102457300149 Eh    ::
         :: gradient norm              0.004094125399 Eh/a0 ::
         :: HOMO-LUMO gap              1.225753170483 eV    ::
         :: SCC energy               -42.634946653089 Eh    ::
         :: -> dispersion             -0.021744241317 Eh    ::
         :: repulsion energy           0.532257312831 Eh    ::

    * Orbital Energies and Occupations

         #    Occupation            Energy/Eh            Energy/eV
      -------------------------------------------------------------
         1        2.0000           -0.9262217             -25.2038
       ...           ...                  ...                  ...
        25        2.0000           -0.6656154             -18.1123
        26        2.0000           -0.6546449             -17.8138
        27        2.0000           -0.6423784             -17.4800
        28        1.9999           -0.6387891             -17.3823
        29        1.9999           -0.6321198             -17.2009
        30        1.9999           -0.6302613             -17.1503
        31        1.9995           -0.6031663             -16.4130
        32        1.9994           -0.6002063             -16.3324
        33        1.9970           -0.5745748             -15.6350
        34        1.9959           -0.5693174             -15.4919
        35        1.9785           -0.5430721             -14.7777
        36        1.7638           -0.5032724             -13.6947
        37        1.6483           -0.4958942             -13.4940 (HOMO)
        38        0.4283           -0.4508486             -12.2682 (LUMO)
        39        0.1445           -0.4310217             -11.7287
        40        0.0429           -0.4109383             -11.1822
        41        0.0021           -0.3629327              -9.8759
        42        0.0000           -0.2917540              -7.9390
        43                         -0.1740807              -4.7370
        44                         -0.1481367              -4.0310
        45                         -0.1217227              -3.3122
        46                         -0.0651301              -1.7723
        47                         -0.0647042              -1.7607
        48                         -0.0502594              -1.3676
       ...                                ...                  ...
        67                          0.7289956              19.8370
      -------------------------------------------------------------
                  HL-Gap            0.0450456 Eh            1.2258 eV

     #   Z          covCN         q      C6AA      α(0)
     1   6 C        3.695    -0.091    22.411     6.772
     2   7 N        2.818     0.052    20.329     6.696
     3   6 C        2.982     0.068    26.471     8.440
     4   7 N        2.799    -0.074    22.669     7.071
     5   6 C        2.941     0.142    24.898     8.184
     6   6 C        3.050    -0.041    28.980     8.829
     7   6 C        2.750     0.264    22.546     7.775
     8   8 O        0.858    -0.392    21.526     6.221
     9   7 N        2.687    -0.233    26.109     7.589
    10   6 C        3.738    -0.001    20.677     6.489
    11   6 C        1.842     0.223    25.919     8.224
    12   8 O        0.856    -0.073    16.126     5.384
    13   7 N        1.835    -0.191    25.954     7.550
    14   6 C        3.690    -0.047    21.618     6.654
    15   1 H        0.925     0.111     1.684     2.030
    16   1 H        0.925     0.098     1.803     2.100
    17   1 H        0.924     0.088     1.894     2.152
    18   1 H        0.926     0.108     1.711     2.045
    19   1 H        0.860     0.201     1.103     1.645
    20   1 H        0.924     0.123     1.586     1.969
    21   1 H        0.923     0.140     1.464     1.892
    22   1 H        0.924     0.099     1.797     2.097
    23   1 H        0.924     0.091     1.865     2.136
    24   1 H        0.924     0.105     1.737     2.061
    25   1 H        0.860     0.228     0.973     1.545

Wiberg/Mayer (AO) data.
largest (>0.10) Wiberg bond orders for each atom

     #   Z sym  total        # sym  WBO       # sym  WBO       # sym  WBO
 ---------------------------------------------------------------------------
     1   6 C    3.935 --     2 N    0.990    16 H    0.972    17 H    0.963
                            15 H    0.963
     2   7 N    3.658 --     3 C    1.382     6 C    1.123     1 C    0.990
                             4 N    0.105
     3   6 C    3.879 --     2 N    1.382     4 N    1.339    18 H    0.952
     4   7 N    3.550 --     3 C    1.339     5 C    1.074    25 H    0.920
                             2 N    0.105
     5   6 C    3.940 --    13 N    1.570     6 C    1.150     4 N    1.074
     6   6 C    3.744 --     7 C    1.162     5 C    1.150     2 N    1.123
     7   6 C    3.918 --     8 O    1.658     6 C    1.162     9 N    1.007
     8   8 O    1.963 --     7 C    1.658
     9   7 N    3.167 --     7 C    1.007    10 C    0.973    19 H    0.931
    10   6 C    3.950 --    11 C    1.071     9 N    0.973    20 H    0.921
                            21 H    0.911
    11   6 C    3.338 --    12 O    2.158    10 C    1.071
    12   8 O    2.292 --    11 C    2.158
    13   7 N    2.839 --     5 C    1.570    14 C    1.069
    14   6 C    3.893 --    13 N    1.069    22 H    0.936    23 H    0.930
                            24 H    0.913
    15   1 H    0.987 --     1 C    0.963
    16   1 H    0.989 --     1 C    0.972
    17   1 H    0.989 --     1 C    0.963
    18   1 H    0.986 --     3 C    0.952
    19   1 H    0.959 --     9 N    0.931
    20   1 H    0.974 --    10 C    0.921
    21   1 H    0.969 --    10 C    0.911
    22   1 H    0.957 --    14 C    0.936
    23   1 H    0.959 --    14 C    0.930
    24   1 H    0.940 --    14 C    0.913
    25   1 H    0.947 --     4 N    0.920
 ---------------------------------------------------------------------------

molecular dipole:
                 x           y           z       tot (Debye)
 q only:        1.796       0.893      -1.583
   full:        1.873       1.105      -1.704       7.022

           -------------------------------------------------
          | TOTAL ENERGY              -42.102457300149 Eh   |
          | GRADIENT NORM               0.004094125399 Eh/α |
          | HOMO-LUMO GAP               1.225753170483 eV   |
           -------------------------------------------------

 * finished run on 2024/06/05 at 19:58:05.256
