   * xtb version 6.6.1 (8d0f1dd) compiled by 'conda@1efc2f54142f' on 2023-08-01
          program call               : xtb struc.xyz --opt loose --input .xc1 --gfn2

   ID    Z sym.   atoms
    1    6 C      1, 3, 5-7, 10, 11, 14
    2    7 N      2, 4, 9, 13
    3    8 O      8, 12
    4    1 H      15-25
constraining bond 4 5 to    3.9200000 Å, actual value:    1.3653241 Å

          :  Hamiltonian                  GFN2-xTB          :
 * total energy  :   -30.6070090 Eh     change       -0.2401990E-09 Eh
 * total energy  :   -34.7683002 Eh     change       -0.4161291E+01 Eh
 * total energy  :   -38.2966814 Eh     change       -0.3528381E+01 Eh
 * total energy  :   -40.5902866 Eh     change       -0.2293605E+01 Eh
 * total energy  :   -41.5892854 Eh     change       -0.9989988E+00 Eh
 * total energy  :   -41.7571771 Eh     change       -0.1678918E+00 Eh
 * total energy  :   -41.7773558 Eh     change       -0.2017867E-01 Eh
 * total energy  :   -41.8202250 Eh     change       -0.4286918E-01 Eh
 * total energy  :   -41.8620314 Eh     change       -0.4180640E-01 Eh
 * total energy  :   -41.8996757 Eh     change       -0.3764426E-01 Eh
 * total energy  :   -42.1250663 Eh     change       -0.2739315E-03 Eh
 * total energy  :   -42.1251664 Eh     change       -0.1001494E-03 Eh
 * total energy  :   -42.1253160 Eh     change       -0.1495969E-03 Eh
 * total energy  :   -42.1254056 Eh     change       -0.8964730E-04 Eh
 * total energy  :   -42.1255119 Eh     change       -0.1062286E-03 Eh
 * total energy  :   -42.1255862 Eh     change       -0.7430340E-04 Eh
 * total energy  :   -42.1255433 Eh     change        0.4284175E-04 Eh
 * total energy  :   -42.1256366 Eh     change       -0.9325432E-04 Eh
 * total energy  :   -42.1256641 Eh     change       -0.2754102E-04 Eh
   *** GEOMETRY OPTIMIZATION CONVERGED AFTER 79 ITERATIONS ***

 final structure:
================
25
 xtb: 6.6.1 (8d0f1dd)
C            2.29387788505184       -0.18247851878476        1.31378705092718
N            1.82940647655739       -0.37301860634993       -0.04334855930030
C            2.57173022436711       -1.07977322704370       -0.94384630740475
N            2.39966386628754       -1.22949972019215       -2.17935271865797
C           -0.55694766297489        0.17731722053570       -0.02543301260291
C            0.74109829635619        0.45708460372115       -0.47368726890734
C            1.00953804902626        1.50067329680787       -1.28877617604542
O            1.28106178837241        2.36848559086716       -2.00505511611672
N           -1.76822837014757        0.81937871523283       -0.17869268340896
C           -2.20676801788091        2.10624307865947       -0.61907847049475
C           -2.38834724845717       -0.21840883309807        0.56723972371584
O           -3.48944587594306       -0.47267116543902        0.90701294199119
N           -1.11610353277410       -0.84176993870486        0.72110486024459
C           -0.74711214461298       -2.17397883349206        1.08966752597476
H            2.87833921408485       -1.04491950287277        1.62716527447137
H            2.92269286037511        0.70967831177963        1.39222161054096
H            1.44456773991057       -0.06062838277914        1.98455382623021
H            3.41602917132315       -1.60197362122537       -0.50349005652871
H           -1.72528214325865        2.37127631369107       -1.56077528287967
H           -3.28553828989763        2.05976991965440       -0.76626545506094
H           -1.98797594947945        2.87881685611251        0.12490200033205
H            0.05817470639179       -2.16741931014106        1.82609067269398
H           -0.43250495311885       -2.75634520988276        0.21969741003224
H           -1.62642183260922       -2.64120476694086        1.53178255757334
H            1.64492725712970       -0.78639572851512       -2.68625272943644

          :  Hamiltonian                  GFN2-xTB          :
         :: total energy             -42.125664134122 Eh    ::
         :: gradient norm              0.002502368286 Eh/a0 ::
         :: HOMO-LUMO gap              2.210706988445 eV    ::
         :: SCC energy               -42.672914562202 Eh    ::
         :: -> dispersion             -0.021808922291 Eh    ::
         :: repulsion energy           0.546966472964 Eh    ::

    * Orbital Energies and Occupations

         #    Occupation            Energy/Eh            Energy/eV
      -------------------------------------------------------------
         1        2.0000           -0.9360001             -25.4699
       ...           ...                  ...                  ...
        25        1.9990           -0.6857733             -18.6608
        26        1.9987           -0.6807961             -18.5254
        27        1.9958           -0.6518001             -17.7364
        28        1.9948           -0.6472007             -17.6112
        29        1.9943           -0.6447150             -17.5436
        30        1.9937           -0.6424445             -17.4818
        31        1.9928           -0.6390859             -17.3904
        32        1.9912           -0.6344033             -17.2630
        33        1.9634           -0.6002281             -16.3330
        34        1.9468           -0.5911871             -16.0870
        35        1.8699           -0.5689811             -15.4828
        36        1.8224           -0.5609708             -15.2648
        37        1.7795           -0.5552754             -15.1098 (HOMO)
        38        0.4176           -0.4740334             -12.8991 (LUMO)
        39        0.2233           -0.4564203             -12.4198
        40        0.0119           -0.3840148             -10.4496
        41        0.0078           -0.3740477             -10.1784
        42        0.0010           -0.3262968              -8.8790
        43        0.0000           -0.2178636              -5.9284
        44        0.0000           -0.1965986              -5.3497
        45        0.0000           -0.1633111              -4.4439
        46        0.0000           -0.1283326              -3.4921
        47                         -0.0874170              -2.3787
        48                         -0.0671350              -1.8268
       ...                                ...                  ...
        67                          0.8895829              24.2068
      -------------------------------------------------------------
                  HL-Gap            0.0812420 Eh            2.2107 eV

     #   Z          covCN         q      C6AA      α(0)
     1   6 C        3.698    -0.071    22.027     6.713
     2   7 N        2.739    -0.036    21.931     6.955
     3   6 C        2.764     0.122    25.295     8.237
     4   7 N        1.774    -0.238    27.031     7.699
     5   6 C        3.380     0.121    22.224     7.342
     6   6 C        2.888     0.005    27.914     8.662
     7   6 C        1.858     0.235    25.673     8.184
     8   8 O        0.856    -0.108    16.630     5.467
     9   7 N        2.999    -0.078    22.756     7.085
    10   6 C        3.682    -0.062    21.903     6.702
    11   6 C        3.236     0.333    20.682     7.378
    12   8 O        0.856    -0.265    19.167     5.870
    13   7 N        2.999    -0.076    22.716     7.079
    14   6 C        3.683    -0.061    21.894     6.700
    15   1 H        0.925     0.099     1.796     2.096
    16   1 H        0.924     0.091     1.865     2.136
    17   1 H        0.925     0.085     1.929     2.172
    18   1 H        0.925     0.112     1.680     2.027
    19   1 H        0.924     0.092     1.856     2.131
    20   1 H        0.925     0.119     1.623     1.992
    21   1 H        0.924     0.098     1.799     2.098
    22   1 H        0.924     0.095     1.831     2.116
    23   1 H        0.924     0.092     1.863     2.135
    24   1 H        0.925     0.116     1.647     2.007
    25   1 H        0.860     0.179     1.217     1.728

Wiberg/Mayer (AO) data.
largest (>0.10) Wiberg bond orders for each atom

     #   Z sym  total        # sym  WBO       # sym  WBO       # sym  WBO
 ---------------------------------------------------------------------------
     1   6 C    3.917 --     2 N    0.987    17 H    0.968    15 H    0.965
                            16 H    0.954
     2   7 N    3.352 --     3 C    1.188     1 C    0.987     6 C    0.969
                             4 N    0.131
     3   6 C    3.927 --     4 N    1.769     2 N    1.188    18 H    0.920
     4   7 N    2.859 --     3 C    1.769    25 H    0.924     2 N    0.131
     5   6 C    3.709 --     6 C    1.257     9 N    1.141    13 N    1.137
     6   6 C    3.860 --     7 C    1.373     5 C    1.257     2 N    0.969
                             8 O    0.122
     7   6 C    3.551 --     8 O    2.082     6 C    1.373
     8   8 O    2.289 --     7 C    2.082     6 C    0.122
     9   7 N    3.417 --     5 C    1.141    10 C    1.000    11 C    0.991
                            12 O    0.106
    10   6 C    3.908 --     9 N    1.000    19 H    0.960    20 H    0.959
                            21 H    0.946
    11   6 C    3.867 --    12 O    1.810     9 N    0.991    13 N    0.983
    12   8 O    2.081 --    11 C    1.810     9 N    0.106    13 N    0.105
    13   7 N    3.405 --     5 C    1.137    14 C    0.998    11 C    0.983
                            12 O    0.105
    14   6 C    3.910 --    13 N    0.998    24 H    0.962    22 H    0.955
                            23 H    0.953
    15   1 H    0.983 --     1 C    0.965
    16   1 H    0.968 --     1 C    0.954
    17   1 H    0.983 --     1 C    0.968
    18   1 H    0.966 --     3 C    0.920
    19   1 H    0.979 --    10 C    0.960
    20   1 H    0.977 --    10 C    0.959
    21   1 H    0.965 --    10 C    0.946
    22   1 H    0.973 --    14 C    0.955
    23   1 H    0.971 --    14 C    0.953
    24   1 H    0.980 --    14 C    0.962
    25   1 H    0.954 --     4 N    0.924
 ---------------------------------------------------------------------------

molecular dipole:
                 x           y           z       tot (Debye)
 q only:        0.892      -0.035       0.311
   full:        0.930       0.189       0.402       2.618

           -------------------------------------------------
          | TOTAL ENERGY              -42.125664134122 Eh   |
          | GRADIENT NORM               0.002502368286 Eh/α |
          | HOMO-LUMO GAP               2.210706988445 eV   |
           -------------------------------------------------

 * finished run on 2024/06/05 at 19:58:45.876
