   * xtb version 6.6.1 (8d0f1dd) compiled by 'conda@1efc2f54142f' on 2023-08-01
          program call               : xtb xtbopt.xyz --opt crude --input .xc2 --gfn2

   ID    Z sym.   atoms
    1    6 C      1, 3, 5-7, 10, 11, 14
    2    7 N      2, 4, 9, 13
    3    8 O      8, 12
    4    1 H      15-25
########################################################################
[WARNING] Please study the warnings concerning your input carefully
-1- readin_getIntValue: could not parse ''
########################################################################

          :  Hamiltonian                  GFN2-xTB          :
 * total energy  :   -42.1610944 Eh     change       -0.5080381E-11 Eh
   *** GEOMETRY OPTIMIZATION CONVERGED AFTER 1 ITERATIONS ***

 final structure:
================
25
 xtb: 6.6.1 (8d0f1dd)
C            3.22747697083048        1.20609029601826       -0.04382514371362
N            2.32629687021757        0.08504689338294       -0.05264512090117
C            2.65316921104379       -1.20681951133335       -0.07529405516698
N            1.53742443946762       -1.96308747086816       -0.04851527426686
C            0.45919842525333       -1.12139091567993       -0.00742859478918
C            0.95425850092965        0.17640511807830       -0.00947420393277
C            0.10572373134873        1.33621194544877        0.03007731003705
O            0.44726951389717        2.50256523407078        0.03798070265450
N           -1.24256820536110        0.94173062518702        0.05314852782581
C           -2.24456792819053        1.99536353978152        0.08382560517017
C           -1.68811987998700       -0.33124409672491        0.03565855287034
O           -3.00418203045042       -0.51577366063308        0.00074183583383
N           -0.87543083485468       -1.43356039251335        0.03494781668741
C           -1.35408997845611       -2.69982494021679        0.00381635694974
H            3.75012075872773        1.26301153108627        0.91217674032701
H            3.96187320375035        1.10939712299912       -0.84225446058450
H            2.64604704038275        2.11762150123073       -0.18117667309705
H            3.65212152963793       -1.59319713992924       -0.10884274390867
H           -1.71250600261235        2.94460113687615        0.08680878188837
H           -2.88658364140216        1.92684104066107       -0.79258419322859
H           -2.85633781996060        1.90359526682865        0.97930827781166
H           -2.34128290870476       -2.92078611214264        0.34463057551068
H           -0.66264829077133       -3.50187102861658       -0.08672373768959
H           -3.20189203849714       -1.43044614848257       -0.26886060210833
H            1.50966087786097       -2.97224129290889       -0.05432466227926

          :  Hamiltonian                  GFN2-xTB          :
         :: total energy             -42.161094445502 Eh    ::
         :: gradient norm              0.005143747238 Eh/a0 ::
         :: HOMO-LUMO gap              1.089688075552 eV    ::
         :: SCC energy               -42.682905660992 Eh    ::
         :: -> dispersion             -0.023050796934 Eh    ::
         :: repulsion energy           0.521705467151 Eh    ::

    * Orbital Energies and Occupations

         #    Occupation            Energy/Eh            Energy/eV
      -------------------------------------------------------------
         1        2.0000           -0.9035640             -24.5872
       ...           ...                  ...                  ...
        25        2.0000           -0.6658230             -18.1180
        26        2.0000           -0.6605957             -17.9757
        27        2.0000           -0.6592607             -17.9394
        28        2.0000           -0.6408673             -17.4389
        29        2.0000           -0.6327158             -17.2171
        30        2.0000           -0.6233809             -16.9631
        31        2.0000           -0.6119911             -16.6531
        32        2.0000           -0.6071860             -16.5224
        33        2.0000           -0.5988809             -16.2964
        34        2.0000           -0.5818158             -15.8320
        35        2.0000           -0.5680591             -15.4577
        36        2.0000           -0.5478598             -14.9080
        37        1.8399           -0.4631292             -12.6024 (HOMO)
        38        0.1362           -0.4230839             -11.5127 (LUMO)
        39        0.0237           -0.4087703             -11.1232
        40        0.0002           -0.3691490             -10.0451
        41                         -0.2798282              -7.6145
        42                         -0.1923792              -5.2349
        43                         -0.1893704              -5.1530
        44                         -0.1413010              -3.8450
        45                         -0.1208257              -3.2878
        46                         -0.0917182              -2.4958
        47                         -0.0542554              -1.4764
        48                         -0.0302450              -0.8230
       ...                                ...                  ...
        67                          0.5374135              14.6238
      -------------------------------------------------------------
                  HL-Gap            0.0400453 Eh            1.0897 eV

     #   Z          covCN         q      C6AA      α(0)
     1   6 C        3.691    -0.094    22.495     6.787
     2   7 N        2.833     0.076    19.923     6.629
     3   6 C        3.049     0.049    26.847     8.498
     4   7 N        2.789    -0.053    22.258     7.007
     5   6 C        3.088     0.084    26.035     8.364
     6   6 C        3.110    -0.017    28.270     8.711
     7   6 C        2.767     0.245    22.896     7.836
     8   8 O        0.857    -0.404    21.756     6.254
     9   7 N        2.748    -0.042    22.057     6.975
    10   6 C        3.709    -0.071    22.006     6.705
    11   6 C        2.781     0.220    23.354     7.915
    12   8 O        1.660    -0.335    19.625     5.980
    13   7 N        2.736     0.024    20.828     6.778
    14   6 C        2.798    -0.165    32.254     9.304
    15   1 H        0.924     0.106     1.733     2.059
    16   1 H        0.925     0.102     1.766     2.078
    17   1 H        0.925     0.138     1.476     1.900
    18   1 H        0.926     0.123     1.592     1.973
    19   1 H        0.925     0.124     1.581     1.966
    20   1 H        0.925     0.097     1.809     2.103
    21   1 H        0.925     0.098     1.800     2.098
    22   1 H        0.927     0.059     2.209     2.324
    23   1 H        0.927     0.049     2.330     2.387
    24   1 H        0.804     0.356     0.575     1.192
    25   1 H        0.860     0.229     0.968     1.541

Wiberg/Mayer (AO) data.
largest (>0.10) Wiberg bond orders for each atom

     #   Z sym  total        # sym  WBO       # sym  WBO       # sym  WBO
 ---------------------------------------------------------------------------
     1   6 C    3.917 --     2 N    0.986    16 H    0.965    17 H    0.960
                            15 H    0.957
     2   7 N    3.656 --     3 C    1.364     6 C    1.156     1 C    0.986
     3   6 C    3.822 --     2 N    1.364     4 N    1.289    18 H    0.953
     4   7 N    3.574 --     3 C    1.289     5 C    1.179    25 H    0.916
     5   6 C    3.917 --     6 C    1.349     4 N    1.179    13 N    1.112
     6   6 C    3.925 --     5 C    1.349     2 N    1.156     7 C    1.100
     7   6 C    3.939 --     8 O    1.621     6 C    1.100     9 N    1.062
     8   8 O    1.946 --     7 C    1.621     9 N    0.150
     9   7 N    3.601 --    11 C    1.246     7 C    1.062    10 C    0.968
                             8 O    0.150
    10   6 C    3.916 --     9 N    0.968    21 H    0.966    20 H    0.965
                            19 H    0.965
    11   6 C    3.876 --     9 N    1.246    13 N    1.149    12 O    1.140
                            14 C    0.177
    12   8 O    2.179 --    11 C    1.140    24 H    0.826
    13   7 N    3.670 --    14 C    1.210    11 C    1.149     5 C    1.112
    14   6 C    3.568 --    13 N    1.210    23 H    0.974    22 H    0.961
                            11 C    0.177
    15   1 H    0.984 --     1 C    0.957
    16   1 H    0.986 --     1 C    0.965
    17   1 H    0.981 --     1 C    0.960
    18   1 H    0.984 --     3 C    0.953
    19   1 H    0.984 --    10 C    0.965
    20   1 H    0.989 --    10 C    0.965
    21   1 H    0.988 --    10 C    0.966
    22   1 H    0.995 --    14 C    0.961
    23   1 H    0.997 --    14 C    0.974
    24   1 H    0.872 --    12 O    0.826
    25   1 H    0.947 --     4 N    0.916
 ---------------------------------------------------------------------------

molecular dipole:
                 x           y           z       tot (Debye)
 q only:        1.349      -1.827      -0.188
   full:        1.460      -2.595      -0.157       7.580

           -------------------------------------------------
          | TOTAL ENERGY              -42.161094445502 Eh   |
          | GRADIENT NORM               0.005143747238 Eh/α |
          | HOMO-LUMO GAP               1.089688075552 eV   |
           -------------------------------------------------

 * finished run on 2024/06/05 at 19:58:09.088
