   * xtb version 6.6.1 (8d0f1dd) compiled by 'conda@1efc2f54142f' on 2023-08-01
          program call               : xtb struc.xyz --opt loose --input .xc1 --gfn2

   ID    Z sym.   atoms
    1    6 C      1, 3, 5-7, 10, 11, 14
    2    7 N      2, 4, 9, 13
    3    8 O      8, 12
    4    1 H      15-25
constraining bond 12 19 to    4.6333300 Å, actual value:    3.7175586 Å

          :  Hamiltonian                  GFN2-xTB          :
 * total energy  :   -43.7574640 Eh     change       -0.2401990E-09 Eh
 * total energy  :   -46.9617687 Eh     change       -0.3204305E+01 Eh
 * total energy  :   -51.2571982 Eh     change       -0.4295429E+01 Eh
 * total energy  :   -56.7898237 Eh     change       -0.5532625E+01 Eh
 * total energy  :   -63.3655105 Eh     change       -0.6575687E+01 Eh
 * total energy  :   -68.2058481 Eh     change       -0.4840338E+01 Eh
 * total energy  :   -71.0425144 Eh     change       -0.2836666E+01 Eh
 * total energy  :   -66.3556461 Eh     change        0.4686868E+01 Eh
 * total energy  :   -71.4056738 Eh     change       -0.5050028E+01 Eh
 * total energy  :   -71.5457505 Eh     change       -0.1400767E+00 Eh
 * total energy  :   -72.1679329 Eh     change       -0.8052951E-04 Eh
 * total energy  :   -72.1679735 Eh     change       -0.4058724E-04 Eh
 * total energy  :   -72.1680443 Eh     change       -0.7081847E-04 Eh
 * total energy  :   -72.1681005 Eh     change       -0.5622862E-04 Eh
 * total energy  :   -72.1568919 Eh     change        0.1120861E-01 Eh
 * total energy  :   -72.1681395 Eh     change       -0.1124753E-01 Eh
 * total energy  :   -72.1681581 Eh     change       -0.1866001E-04 Eh
 * total energy  :   -72.1682372 Eh     change       -0.7909197E-04 Eh
 * total energy  :   -72.1682689 Eh     change       -0.3166049E-04 Eh
   *** GEOMETRY OPTIMIZATION CONVERGED AFTER 72 ITERATIONS ***

 final structure:
================
25
 xtb: 6.6.1 (8d0f1dd)
C            3.02935917485969        1.15876349945779        0.05204581350182
N            2.30206373002369       -0.08042277231226        0.01914043088683
C            2.82154343341779       -1.31047285491290       -0.09918205064001
N            1.81865866867804       -2.22896931622454       -0.09817447521976
C            0.63327207364523       -1.56043696886762        0.02691762841437
C            0.93209996886849       -0.20039447754388        0.09851933884373
C           -0.11898180915591        0.79897943814623        0.20862012210755
O            0.03225703463516        2.00605556320602        0.26275146953611
N           -1.35999961035020        0.17954960388120        0.23485312255421
C           -3.49753426812154        3.66782011188060       -0.10938862883880
C           -1.58842131356927       -1.06035901061068        0.17525659597429
O           -2.53203491746448        2.80860294637851       -0.33170846689368
N           -0.64042863520022       -2.03121304603221        0.07014279283153
C           -0.96452954443110       -3.43605782680280       -0.00975582044619
H            3.74670608440935        1.15711746175041        0.87351829458669
H            3.56787246423432        1.30975646189865       -0.88509470156838
H            2.31797443432987        1.97261975361698        0.19236546729517
H            3.86315213333579       -1.53791780305806       -0.18737827660839
H           -2.16356321534856        2.77622308053931       -0.16334622208752
H           -4.41948326690575        3.57459306554872       -0.66346210865737
H           -3.37962602158023        4.46124133682095        0.62104953382816
H           -0.46900118956158       -3.99301926790691        0.78900893776164
H           -0.66917721312196       -3.84659860466931       -0.97852907148327
H           -2.04264065427919       -3.53944770879530        0.10260416530514
H            1.94089397260470       -3.22777412366646       -0.16960227343341

          :  Hamiltonian                  GFN2-xTB          :
         :: total energy             -72.168268874297 Eh    ::
         :: gradient norm              0.003850799480 Eh/a0 ::
         :: HOMO-LUMO gap              0.819753675183 eV    ::
         :: SCC energy               -42.673295179368 Eh    ::
         :: -> dispersion             -0.020597704247 Eh    ::
         :: repulsion energy           2.406955676360 Eh    ::

    * Orbital Energies and Occupations

         #    Occupation            Energy/Eh            Energy/eV
      -------------------------------------------------------------
         1        2.0000           -0.8823292             -24.0094
       ...           ...                  ...                  ...
        25        1.9997           -0.6638472             -18.0642
        26        1.9996           -0.6562503             -17.8575
        27        1.9992           -0.6413733             -17.4527
        28        1.9980           -0.6197638             -16.8646
        29        1.9975           -0.6141702             -16.7124
        30        1.9970           -0.6103263             -16.6078
        31        1.9946           -0.5962302             -16.2242
        32        1.9891           -0.5794340             -15.7672
        33        1.9863           -0.5740445             -15.6205
        34        1.9627           -0.5499592             -14.9652
        35        1.9519           -0.5438107             -14.7978
        36        1.9306           -0.5348556             -14.5542
        37        1.2143           -0.4661968             -12.6859 (HOMO)
        38        0.6060           -0.4360714             -11.8661 (LUMO)
        39        0.2700           -0.4117410             -11.2040
        40        0.0678           -0.3762761             -10.2390
        41        0.0368           -0.3613982              -9.8341
        42        0.0004           -0.2517079              -6.8493
        43        0.0000           -0.1743009              -4.7430
        44        0.0000           -0.1539256              -4.1885
        45        0.0000           -0.1146719              -3.1204
        46                         -0.0560567              -1.5254
        47                         -0.0240801              -0.6553
        48                         -0.0126845              -0.3452
       ...                                ...                  ...
        67                          5.3845830             146.5220
      -------------------------------------------------------------
                  HL-Gap            0.0301254 Eh            0.8198 eV

     #   Z          covCN         q      C6AA      α(0)
     1   6 C        3.690    -0.084    22.294     6.757
     2   7 N        2.823     0.056    20.269     6.687
     3   6 C        3.027     0.039    27.093     8.538
     4   7 N        2.780    -0.075    22.686     7.074
     5   6 C        3.068     0.104    25.628     8.301
     6   6 C        3.098    -0.012    28.180     8.700
     7   6 C        2.774     0.279    22.287     7.732
     8   8 O        0.857    -0.393    21.551     6.224
     9   7 N        1.845    -0.196    26.075     7.568
    10   6 C        2.791     0.057    26.699     8.464
    11   6 C        1.918     0.022    30.539     8.925
    12   8 O        1.664    -0.247    18.108     5.745
    13   7 N        2.740     0.007    21.133     6.828
    14   6 C        3.694    -0.069    22.002     6.711
    15   1 H        0.924     0.097     1.812     2.105
    16   1 H        0.924     0.097     1.809     2.103
    17   1 H        0.925     0.127     1.556     1.951
    18   1 H        0.927     0.109     1.705     2.042
    19   1 H        0.895     0.373     0.530     1.139
    20   1 H        0.926     0.121     1.605     1.981
    21   1 H        0.925     0.103     1.761     2.075
    22   1 H        0.924     0.078     2.003     2.213
    23   1 H        0.924     0.079     1.987     2.204
    24   1 H        0.925     0.110     1.700     2.039
    25   1 H        0.860     0.217     1.022     1.584

Wiberg/Mayer (AO) data.
largest (>0.10) Wiberg bond orders for each atom

     #   Z sym  total        # sym  WBO       # sym  WBO       # sym  WBO
 ---------------------------------------------------------------------------
     1   6 C    3.920 --     2 N    0.991    15 H    0.962    17 H    0.962
                            16 H    0.960
     2   7 N    3.591 --     3 C    1.329     6 C    1.148     1 C    0.991
     3   6 C    3.717 --     2 N    1.329     4 N    1.241    18 H    0.957
     4   7 N    3.520 --     3 C    1.241     5 C    1.177    25 H    0.925
     5   6 C    3.877 --     6 C    1.343     4 N    1.177    13 N    1.176
     6   6 C    3.840 --     5 C    1.343     2 N    1.148     7 C    1.068
     7   6 C    3.839 --     8 O    1.626     9 N    1.077     6 C    1.068
     8   8 O    1.905 --     7 C    1.626     9 N    0.102
     9   7 N    3.003 --    11 C    1.700     7 C    1.077     8 O    0.102
    10   6 C    3.246 --    12 O    1.326    20 H    0.961    21 H    0.957
    11   6 C    3.015 --     9 N    1.700    13 N    1.172
    12   8 O    2.216 --    10 C    1.326    19 H    0.853
    13   7 N    3.527 --     5 C    1.176    11 C    1.172    14 C    0.987
    14   6 C    3.936 --    13 N    0.987    24 H    0.972    22 H    0.969
                            23 H    0.967
    15   1 H    0.983 --     1 C    0.962
    16   1 H    0.983 --     1 C    0.960
    17   1 H    0.982 --     1 C    0.962
    18   1 H    0.987 --     3 C    0.957
    19   1 H    0.861 --    12 O    0.853
    20   1 H    0.981 --    10 C    0.961
    21   1 H    0.984 --    10 C    0.957
    22   1 H    0.987 --    14 C    0.969
    23   1 H    0.986 --    14 C    0.967
    24   1 H    0.985 --    14 C    0.972
    25   1 H    0.952 --     4 N    0.925
 ---------------------------------------------------------------------------

molecular dipole:
                 x           y           z       tot (Debye)
 q only:        0.803      -0.925      -0.237
   full:        1.574      -1.546      -0.191       5.629

           -------------------------------------------------
          | TOTAL ENERGY              -72.168268874297 Eh   |
          | GRADIENT NORM               0.003850799480 Eh/α |
          | HOMO-LUMO GAP               0.819753675183 eV   |
           -------------------------------------------------

 * finished run on 2024/06/05 at 19:58:51.016
