   * xtb version 6.6.1 (8d0f1dd) compiled by 'conda@1efc2f54142f' on 2023-08-01
          program call               : xtb xtbopt.xyz --opt crude --input .xc2 --gfn2

   ID    Z sym.   atoms
    1    6 C      1, 3, 5-7, 10, 11, 14
    2    7 N      2, 4, 9, 13
    3    8 O      8, 12
    4    1 H      15-25

          :  Hamiltonian                  GFN2-xTB          :
 * total energy  :   -40.2663678 Eh     change       -0.1783462E-11 Eh
 * total energy  :   -42.0962879 Eh     change       -0.1829920E+01 Eh
 * total energy  :   -42.1266257 Eh     change       -0.3033786E-01 Eh
 * total energy  :   -42.1296100 Eh     change       -0.2984276E-02 Eh
 * total energy  :   -42.1321719 Eh     change       -0.2561893E-02 Eh
 * total energy  :   -42.1329805 Eh     change       -0.8085677E-03 Eh
 * total energy  :   -42.1339078 Eh     change       -0.9273232E-03 Eh
 * total energy  :   -42.1342151 Eh     change       -0.3073141E-03 Eh
   *** GEOMETRY OPTIMIZATION CONVERGED AFTER 8 ITERATIONS ***

 final structure:
================
25
 xtb: 6.6.1 (8d0f1dd)
C            2.89923557816255        1.25051197865942        0.04970874471734
N            2.19128064696076        0.00010162206916        0.02087365791149
C            2.74916893382564       -1.21640100160693       -0.07606512169672
N            1.77450574466485       -2.16595749240337       -0.07283376020306
C            0.56926402721440       -1.53361599318889        0.02997468254208
C            0.82366660229038       -0.16066480076545        0.08989952105890
C           -0.26709826114003        0.77521706192951        0.17455832330654
O           -0.17600863817000        2.01051600076606        0.18686637176541
N           -1.47838221949131        0.12927534740592        0.22052888443192
C           -3.24484876086695        3.57860018819321       -0.07925037825656
C           -1.67499890565569       -1.12345049405685        0.17814141902182
O           -2.52439197595608        2.66462774157095       -0.61080153450133
N           -0.68472692515563       -2.05114869479947        0.07149941707820
C           -0.94778280009579       -3.46843794130209       -0.00541358312111
H            3.60716484619958        1.26448710901391        0.87961353616407
H            3.44799130602227        1.39716428697706       -0.88200348345879
H            2.18009470018099        2.05877224076410        0.17302058637055
H            3.79765515183028       -1.41464912665782       -0.14659398618169
H           -1.58478891575300        2.54011316456890       -0.21199761918352
H           -4.23751185912551        3.72183491172392       -0.48563456292301
H           -2.90877387315607        4.20697230507983        0.74010340087440
H           -0.44343661077178       -3.99883349881528        0.80464420320564
H           -0.61759902479076       -3.87056244445868       -0.96577496335992
H           -2.02144241417175       -3.61690244611372        0.08835261140790
H            1.93219516087287       -3.15933148278158       -0.14024474943528

          :  Hamiltonian                  GFN2-xTB          :
         :: total energy             -42.134215125100 Eh    ::
         :: gradient norm              0.008889427193 Eh/a0 ::
         :: HOMO-LUMO gap              1.151215093013 eV    ::
         :: SCC energy               -42.643471371111 Eh    ::
         :: -> dispersion             -0.020953119603 Eh    ::
         :: repulsion energy           0.509264702747 Eh    ::

    * Orbital Energies and Occupations

         #    Occupation            Energy/Eh            Energy/eV
      -------------------------------------------------------------
         1        2.0000           -0.8831126             -24.0307
       ...           ...                  ...                  ...
        25        1.9997           -0.6633229             -18.0499
        26        1.9996           -0.6576945             -17.8968
        27        1.9993           -0.6451185             -17.5546
        28        1.9981           -0.6212610             -16.9054
        29        1.9977           -0.6167553             -16.7828
        30        1.9971           -0.6113100             -16.6346
        31        1.9951           -0.5986723             -16.2907
        32        1.9932           -0.5909306             -16.0800
        33        1.9892           -0.5799094             -15.7801
        34        1.9679           -0.5537450             -15.0682
        35        1.9521           -0.5440300             -14.8038
        36        1.9411           -0.5390132             -14.6673
        37        1.2790           -0.4696074             -12.7787 (HOMO)
        38        0.4601           -0.4273011             -11.6275 (LUMO)
        39        0.3140           -0.4160735             -11.3219
        40        0.0767           -0.3794721             -10.3260
        41        0.0412           -0.3642615              -9.9121
        42        0.0004           -0.2546257              -6.9287
        43        0.0000           -0.1751551              -4.7662
        44        0.0000           -0.1547630              -4.2113
        45        0.0000           -0.1153721              -3.1394
        46                         -0.0555967              -1.5129
        47                         -0.0345076              -0.9390
        48                         -0.0174249              -0.4742
       ...                                ...                  ...
        67                          0.5286480              14.3852
      -------------------------------------------------------------
                  HL-Gap            0.0423064 Eh            1.1512 eV

     #   Z          covCN         q      C6AA      α(0)
     1   6 C        3.691    -0.082    22.260     6.752
     2   7 N        2.821     0.053    20.319     6.695
     3   6 C        3.027     0.038    27.124     8.543
     4   7 N        2.778    -0.075    22.688     7.074
     5   6 C        3.068     0.104    25.633     8.302
     6   6 C        3.094    -0.008    28.098     8.688
     7   6 C        2.778     0.268    22.476     7.765
     8   8 O        0.863    -0.432    22.320     6.334
     9   7 N        1.847    -0.198    26.135     7.577
    10   6 C        2.706     0.090    25.982     8.343
    11   6 C        1.917     0.017    30.663     8.943
    12   8 O        1.646    -0.231    17.847     5.703
    13   7 N        2.740     0.010    21.082     6.819
    14   6 C        3.695    -0.070    22.019     6.713
    15   1 H        0.924     0.097     1.817     2.108
    16   1 H        0.924     0.097     1.811     2.105
    17   1 H        0.925     0.123     1.589     1.971
    18   1 H        0.927     0.109     1.707     2.043
    19   1 H        0.797     0.392     0.501     1.113
    20   1 H        0.925     0.118     1.631     1.997
    21   1 H        0.925     0.094     1.842     2.123
    22   1 H        0.924     0.078     1.996     2.210
    23   1 H        0.924     0.080     1.981     2.201
    24   1 H        0.925     0.111     1.688     2.032
    25   1 H        0.860     0.218     1.020     1.582

Wiberg/Mayer (AO) data.
largest (>0.10) Wiberg bond orders for each atom

     #   Z sym  total        # sym  WBO       # sym  WBO       # sym  WBO
 ---------------------------------------------------------------------------
     1   6 C    3.924 --     2 N    0.991    17 H    0.965    15 H    0.962
                            16 H    0.961
     2   7 N    3.580 --     3 C    1.322     6 C    1.142     1 C    0.991
     3   6 C    3.702 --     2 N    1.322     4 N    1.238    18 H    0.957
     4   7 N    3.520 --     3 C    1.238     5 C    1.180    25 H    0.925
     5   6 C    3.871 --     6 C    1.327    13 N    1.182     4 N    1.180
     6   6 C    3.855 --     5 C    1.327     2 N    1.142     7 C    1.108
     7   6 C    3.820 --     8 O    1.512     9 N    1.124     6 C    1.108
     8   8 O    1.932 --     7 C    1.512    19 H    0.125
     9   7 N    3.007 --    11 C    1.659     7 C    1.124
    10   6 C    3.388 --    12 O    1.469    21 H    0.960    20 H    0.955
    11   6 C    2.975 --     9 N    1.659    13 N    1.176
    12   8 O    2.233 --    10 C    1.469    19 H    0.695
    13   7 N    3.530 --     5 C    1.182    11 C    1.176    14 C    0.987
    14   6 C    3.936 --    13 N    0.987    24 H    0.972    22 H    0.969
                            23 H    0.967
    15   1 H    0.983 --     1 C    0.962
    16   1 H    0.982 --     1 C    0.961
    17   1 H    0.983 --     1 C    0.965
    18   1 H    0.987 --     3 C    0.957
    19   1 H    0.845 --    12 O    0.695     8 O    0.125
    20   1 H    0.980 --    10 C    0.955
    21   1 H    0.986 --    10 C    0.960
    22   1 H    0.987 --    14 C    0.969
    23   1 H    0.986 --    14 C    0.967
    24   1 H    0.985 --    14 C    0.972
    25   1 H    0.952 --     4 N    0.925
 ---------------------------------------------------------------------------

molecular dipole:
                 x           y           z       tot (Debye)
 q only:        1.146      -0.847      -0.073
   full:        1.827      -1.344      -0.000       5.765

           -------------------------------------------------
          | TOTAL ENERGY              -42.134215125100 Eh   |
          | GRADIENT NORM               0.008889427193 Eh/α |
          | HOMO-LUMO GAP               1.151215093013 eV   |
           -------------------------------------------------

 * finished run on 2024/06/05 at 19:58:51.406
