   * xtb version 6.6.1 (8d0f1dd) compiled by 'conda@1efc2f54142f' on 2023-08-01
          program call               : xtb xtbopt.xyz --opt crude --input .xc2 --gfn2

   ID    Z sym.   atoms
    1    6 C      1, 3, 5-7, 10, 11, 14
    2    7 N      2, 4, 9, 13
    3    8 O      8, 12
    4    1 H      15-25

          :  Hamiltonian                  GFN2-xTB          :
 * total energy  :   -42.1353432 Eh     change       -0.8171241E-12 Eh
   *** GEOMETRY OPTIMIZATION CONVERGED AFTER 1 ITERATIONS ***

 final structure:
================
25
 xtb: 6.6.1 (8d0f1dd)
C            3.29842153046132        1.26967172830870        0.05973417555574
N            2.37129526768415        0.17116246874579        0.04149627593649
C            2.67697804560856       -1.13087164558980        0.04606981769376
N            1.54216872080394       -1.87028127201249        0.02331898137394
C            0.47643790522694       -1.00694350164962        0.00245270591118
C            1.00017893092693        0.28355066473956        0.01470644611205
C            0.16567697643139        1.45438673424640        0.00076478499546
O            0.54589264791351        2.60901102996544        0.01763078593919
N           -1.19547124593186        1.11273023949500       -0.03706427925564
C           -2.15455893298154        2.20791143082761       -0.06740100340727
C           -1.75276706332607       -0.13998409263058       -0.06361954526701
O           -2.93771647043174       -0.33497532632039       -0.12022688067838
N           -0.85401782103901       -1.27501052012999       -0.02474221302693
C           -1.39474979760279       -2.50638181111407       -0.01811082750082
H            3.91494296519618        1.23144261807459        0.95868055238865
H            3.95020282666756        1.23104512424618       -0.81395228404770
H            2.73482616482889        2.20251124053434        0.04866034622320
H            3.66905957541847       -1.53412971840029        0.06558093351416
H           -1.59778171069091        3.14268089518791       -0.04629830967237
H           -2.75921569262683        2.14779921191543       -0.97263101916539
H           -2.81911269704125        2.14379926350613        0.79446774158427
H           -0.77222077104453       -3.37545603272786       -0.01442118825850
H           -2.46516693173120       -2.57551780330098       -0.03653734769301
H           -3.99268109861779       -4.76128623755119        0.15084917329680
H            1.50981018999821       -2.87862614676553        0.02176379534732

          :  Hamiltonian                  GFN2-xTB          :
         :: total energy             -42.135343182486 Eh    ::
         :: gradient norm              0.002462194626 Eh/a0 ::
         :: HOMO-LUMO gap              0.054944569444 eV    ::
         :: SCC energy               -42.652292349759 Eh    ::
         :: -> dispersion             -0.022557012324 Eh    ::
         :: repulsion energy           0.516880145036 Eh    ::

    * Orbital Energies and Occupations

         #    Occupation            Energy/Eh            Energy/eV
      -------------------------------------------------------------
         1        2.0000           -0.9098201             -24.7575
       ...           ...                  ...                  ...
        25        1.9993           -0.6715743             -18.2745
        26        1.9991           -0.6657659             -18.1164
        27        1.9989           -0.6619843             -18.0135
        28        1.9965           -0.6339300             -17.2501
        29        1.9961           -0.6316073             -17.1869
        30        1.9961           -0.6313595             -17.1802
        31        1.9926           -0.6162586             -16.7693
        32        1.9877           -0.6042261             -16.4418
        33        1.9745           -0.5867931             -15.9675
        34        1.9732           -0.5856087             -15.9352
        35        1.9407           -0.5663377             -15.4108
        36        1.9398           -0.5659967             -15.4016
        37        0.9811           -0.4826011             -13.1322 (HOMO)
        38        0.9386           -0.4805819             -13.0773 (LUMO)
        39        0.2107           -0.4326886             -11.7741
        40        0.0577           -0.3999806             -10.8840
        41        0.0192           -0.3734321             -10.1616
        42        0.0005           -0.2885996              -7.8532
        43        0.0000           -0.2100074              -5.7146
        44        0.0000           -0.1986323              -5.4051
        45        0.0000           -0.1475002              -4.0137
        46        0.0000           -0.1342137              -3.6521
        47                         -0.0659806              -1.7954
        48                         -0.0365408              -0.9943
       ...                                ...                  ...
        67                          0.5405811              14.7100
      -------------------------------------------------------------
                  HL-Gap            0.0020192 Eh            0.0549 eV

     #   Z          covCN         q      C6AA      α(0)
     1   6 C        3.691    -0.093    22.478     6.785
     2   7 N        2.823     0.074    19.956     6.635
     3   6 C        3.037     0.045    26.951     8.515
     4   7 N        2.782    -0.060    22.401     7.029
     5   6 C        3.032     0.091    25.958     8.357
     6   6 C        3.102    -0.014    28.221     8.705
     7   6 C        2.764     0.261    22.609     7.787
     8   8 O        0.858    -0.361    20.918     6.132
     9   7 N        2.744    -0.074    22.672     7.072
    10   6 C        3.711    -0.063    21.841     6.678
    11   6 C        2.734     0.306    21.795     7.643
    12   8 O        0.859    -0.338    20.473     6.066
    13   7 N        2.736     0.011    21.066     6.817
    14   6 C        2.798    -0.060    29.485     8.895
    15   1 H        0.924     0.108     1.718     2.050
    16   1 H        0.924     0.107     1.719     2.050
    17   1 H        0.925     0.137     1.480     1.903
    18   1 H        0.926     0.123     1.586     1.969
    19   1 H        0.925     0.122     1.597     1.976
    20   1 H        0.924     0.106     1.730     2.057
    21   1 H        0.924     0.106     1.733     2.059
    22   1 H        0.927     0.088     1.895     2.153
    23   1 H        0.926     0.131     1.526     1.932
    24   1 H        0.000     0.019     6.842     4.783
    25   1 H        0.860     0.226     0.981     1.551

Wiberg/Mayer (AO) data.
largest (>0.10) Wiberg bond orders for each atom

     #   Z sym  total        # sym  WBO       # sym  WBO       # sym  WBO
 ---------------------------------------------------------------------------
     1   6 C    3.906 --     2 N    0.988    16 H    0.957    17 H    0.957
                            15 H    0.957
     2   7 N    3.611 --     3 C    1.342     6 C    1.156     1 C    0.988
     3   6 C    3.747 --     2 N    1.342     4 N    1.264    18 H    0.953
     4   7 N    3.522 --     3 C    1.264     5 C    1.169    25 H    0.920
     5   6 C    3.850 --     6 C    1.322     4 N    1.169    13 N    1.154
     6   6 C    3.830 --     5 C    1.322     2 N    1.156     7 C    1.093
     7   6 C    3.880 --     8 O    1.637     6 C    1.093     9 N    1.068
     8   8 O    1.915 --     7 C    1.637     9 N    0.121
     9   7 N    3.517 --    11 C    1.158     7 C    1.068    10 C    0.971
                            12 O    0.138     8 O    0.121
    10   6 C    3.884 --     9 N    0.971    19 H    0.959    21 H    0.955
                            20 H    0.954
    11   6 C    3.897 --    12 O    1.696     9 N    1.158    13 N    0.953
    12   8 O    1.995 --    11 C    1.696     9 N    0.138
    13   7 N    3.602 --    14 C    1.285     5 C    1.154    11 C    0.953
    14   6 C    3.312 --    13 N    1.285    22 H    0.969    23 H    0.956
    15   1 H    0.980 --     1 C    0.957
    16   1 H    0.980 --     1 C    0.957
    17   1 H    0.978 --     1 C    0.957
    18   1 H    0.983 --     3 C    0.953
    19   1 H    0.977 --    10 C    0.959
    20   1 H    0.973 --    10 C    0.954
    21   1 H    0.973 --    10 C    0.955
    22   1 H    0.990 --    14 C    0.969
    23   1 H    0.980 --    14 C    0.956
    24   1 H    0.003
    25   1 H    0.948 --     4 N    0.920
 ---------------------------------------------------------------------------

molecular dipole:
                 x           y           z       tot (Debye)
 q only:        2.428      -1.659       0.053
   full:        2.683      -2.206       0.058       8.829

           -------------------------------------------------
          | TOTAL ENERGY              -42.135343182486 Eh   |
          | GRADIENT NORM               0.002462194626 Eh/α |
          | HOMO-LUMO GAP               0.054944569444 eV   |
           -------------------------------------------------

 * finished run on 2024/06/05 at 19:58:54.816
