   * xtb version 6.6.1 (8d0f1dd) compiled by 'conda@1efc2f54142f' on 2023-08-01
          program call               : xtb xtbopt.xyz --opt crude --input .xc2 --gfn2

   ID    Z sym.   atoms
    1    7 N      1, 17
    2    6 C      2-6, 8, 9, 11-16, 18-23, 25, 26, 28-33
    3    8 O      7, 10, 24, 27
    4    1 H      34-72

          :  Hamiltonian                  GFN2-xTB          :
 * total energy  :   -99.3589088 Eh     change       -0.1421085E-11 Eh
   *** GEOMETRY OPTIMIZATION CONVERGED AFTER 1 ITERATIONS ***

 final structure:
================
72
 xtb: 6.6.1 (8d0f1dd)
N           -3.44250414242597        3.20104206332690        3.09794781708782
C           -3.32053642602548        2.05626062094201        2.60414522206520
C           -3.46623261353961        1.78241305820154        1.11939981750162
C           -4.10902846705064        0.43414527400360        0.86864897064435
C           -3.92979030605819       -0.17955003660357       -0.37164860471437
C           -4.54167971172512       -1.38500509196012       -0.67111428683347
O           -4.43193519467369       -2.04675909984242       -1.84323049820793
C           -3.75170756563023       -1.43820729263512       -2.91325822746249
C           -5.36311087335702       -2.01499625430150        0.30454400908030
O           -5.90513063342217       -3.18975938273255       -0.06806894031777
C           -6.76223843755338       -3.86406265299165        0.82361595241625
C           -5.54925577095326       -1.38662920412100        1.52691511304031
C           -4.93520081341195       -0.17336986102975        1.80151315576069
C           -2.00423581569312        1.79678861607095        0.79308866531772
C           -1.18406329926084        0.70376128717135        0.86193145259189
C            0.19616913586562        0.80743644186482        0.68526280604835
N            1.07145438304547       -0.19768331747404        0.73828318826957
C            2.47719850806331        0.03192412384996        0.51859119579908
C            2.91969695759231       -0.33673478361683       -0.91229679580031
C            4.39304367422425       -0.08143061760817       -1.05965307803751
C            4.86035699545776        1.18294530573609       -1.38597791739259
C            6.21943056235313        1.43912121128290       -1.46916475424557
C            7.14439997011674        0.43323722888384       -1.22430270478672
O            8.48178221465433        0.56789120499672       -1.26571169695299
C            9.03933293402349        1.81881884982269       -1.59691581425598
C            6.67506538742962       -0.87014078593425       -0.89786348394287
O            7.63791945847576       -1.78808717585075       -0.68939069577520
C            7.27716854496266       -3.11615611112608       -0.39294355820523
C            5.30995293959497       -1.10022578498730       -0.81613682362586
C            0.63487907660647       -1.55883396094651        0.93573882036731
C           -4.28915797137202        2.85523083357511        0.34711818938557
C           -5.68570863020431        2.98749365685653        0.95072754335797
C           -3.62963660011512        4.22991777621951        0.28153573484413
H           -3.30275848469476        0.30508879703782       -1.10370475667535
H           -4.19839930927874       -0.47422574637625       -3.17560368842811
H           -3.85513867384362       -2.12356401780256       -3.75255531076232
H           -2.68895791937052       -1.29636737813347       -2.68961748105563
H           -7.64028691705104       -3.25993476388181        1.07059611620895
H           -7.07945017084760       -4.76393658619488        0.30018752061649
H           -6.24190952259770       -4.14495893539864        1.74470848968213
H           -6.18480214471655       -1.83005027644892        2.27581511413898
H           -5.12379190294914        0.30021126655540        2.75234638953779
H           -0.66160266115680        0.82807257790079       -2.67911797849443
H           -1.56593314402461        2.76675315185916        0.62090100444652
H           -1.62282355993652       -0.26470841172218        1.05170330919291
H           -0.63246816328727        0.88735564417078       -1.90102743841593
H           -3.01611134243070        1.16505889934686        3.16948758403224
H            0.61712591873359        1.78803633341459        0.50985888780611
H            3.05066285086028       -0.56254849105494        1.23520717547397
H            2.70144321776587        1.08532916025504        0.69672951585539
H            2.35818074016796        0.27144241789093       -1.62338068218863
H            2.69821628172725       -1.38700107762037       -1.10502695447623
H            4.16138586806012        1.98054469561940       -1.58640543231032
H            6.55223544094031        2.43094462433168       -1.72781112302645
H            8.75874664432710        2.58755340838994       -0.87038737878200
H            8.74053018326917        2.13700345805716       -2.60013256228593
H           10.11758294415809        1.67372949132698       -1.57017117489891
H            8.21566574893678       -3.65903495682735       -0.30015099983099
H            6.72744449966131       -3.18153772613820        0.55115560982925
H            6.68085179014671       -3.55898126273329       -1.19656102623341
H            4.94649022148734       -2.08561003086557       -0.56972962530211
H           -0.00804188189145       -1.88835214406204        0.11594989989320
H            0.07785655472254       -1.64880824229031        1.87008204593533
H            1.50037413215607       -2.21371771961654        0.98561026938013
H           -4.39449529018489        2.47485163572608       -0.67600255783014
H           -5.62140798611082        3.42192066650389        1.94424367774164
H           -6.18022050480253        2.02115887379536        1.01623764192672
H           -6.29458500165495        3.63919703650420        0.32995998754194
H           -3.35268598535595        4.56042609671831        1.27803826250414
H           -2.75444867431771        4.23165974376321       -0.36360081557320
H           -4.34036143817256        4.94200534714496       -0.13041183224581
H           -3.27429423129528        3.30833782417197        4.09251538657975

          :  Hamiltonian                  GFN2-xTB          :
         :: total energy             -99.358908845418 Eh    ::
         :: gradient norm              0.001530185063 Eh/a0 ::
         :: HOMO-LUMO gap              1.369052652633 eV    ::
         :: SCC energy              -100.781598354517 Eh    ::
         :: -> dispersion             -0.072314757081 Eh    ::
         :: repulsion energy           1.421801536241 Eh    ::

    * Orbital Energies and Occupations

         #    Occupation            Energy/Eh            Energy/eV
      -------------------------------------------------------------
         1        2.0000           -0.8094215             -22.0255
       ...           ...                  ...                  ...
        78        1.9979           -0.5293660             -14.4048
        79        1.9978           -0.5290564             -14.3964
        80        1.9963           -0.5207432             -14.1701
        81        1.9963           -0.5203433             -14.1593
        82        1.9945           -0.5143317             -13.9957
        83        1.9939           -0.5127082             -13.9515
        84        1.9925           -0.5092857             -13.8584
        85        1.9909           -0.5062807             -13.7766
        86        1.9732           -0.4889917             -13.3061
        87        1.9713           -0.4878913             -13.2762
        88        1.9023           -0.4679601             -12.7338
        89        1.8220           -0.4577661             -12.4565
        90        1.8073           -0.4563813             -12.4188 (HOMO)
        91        0.5621           -0.4060696             -11.0497 (LUMO)
        92        0.0061           -0.3292362              -8.9590
        93        0.0023           -0.3136841              -8.5358
        94        0.0022           -0.3128688              -8.5136
        95        0.0019           -0.3108283              -8.4581
        96        0.0019           -0.3107303              -8.4554
        97        0.0001           -0.2684759              -7.3056
        98        0.0000           -0.1882129              -5.1215
        99        0.0000           -0.1880451              -5.1170
       100                         -0.1218729              -3.3163
       101                         -0.0636752              -1.7327
       ...                                ...                  ...
       171                          0.5770009              15.7010
      -------------------------------------------------------------
                  HL-Gap            0.0503118 Eh            1.3691 eV

     #   Z          covCN         q      C6AA      α(0)
     1   7 N        1.774    -0.274    27.930     7.826
     2   6 C        2.902     0.105    25.680     8.309
     3   6 C        3.915     0.016    20.254     6.397
     4   6 C        2.975     0.003    27.945     8.671
     5   6 C        2.920    -0.076    29.893     8.966
     6   6 C        2.863     0.130    25.141     8.219
     7   8 O        1.706    -0.229    17.790     5.695
     8   6 C        3.645     0.029    20.429     6.496
     9   6 C        2.864     0.133    25.093     8.211
    10   8 O        1.706    -0.223    17.697     5.680
    11   6 C        3.645     0.025    20.483     6.504
    12   6 C        2.914    -0.068    29.695     8.936
    13   6 C        2.921    -0.045    29.116     8.849
    14   6 C        2.989    -0.029    28.713     8.790
    15   6 C        2.892    -0.057    29.407     8.891
    16   6 C        2.856     0.015    27.673     8.622
    17   7 N        2.731     0.000    21.265     6.849
    18   6 C        3.754    -0.016    20.911     6.520
    19   6 C        3.807    -0.071    21.848     6.654
    20   6 C        2.969     0.003    27.948     8.672
    21   6 C        2.922    -0.047    29.166     8.856
    22   6 C        2.913    -0.066    29.651     8.929
    23   6 C        2.864     0.134    25.060     8.206
    24   8 O        1.706    -0.218    17.625     5.668
    25   6 C        3.645     0.024    20.504     6.508
    26   6 C        2.862     0.134    25.062     8.206
    27   8 O        1.706    -0.221    17.670     5.675
    28   6 C        3.645     0.026    20.473     6.503
    29   6 C        2.919    -0.078    29.952     8.975
    30   6 C        3.700    -0.065    21.910     6.694
    31   6 C        3.853    -0.005    20.629     6.460
    32   6 C        3.756    -0.115    22.763     6.803
    33   6 C        3.755    -0.120    22.856     6.817
    34   1 H        0.926     0.049     2.332     2.388
    35   1 H        0.924     0.054     2.275     2.359
    36   1 H        0.925     0.081     1.971     2.196
    37   1 H        0.924     0.044     2.398     2.422
    38   1 H        0.924     0.057     2.233     2.337
    39   1 H        0.925     0.082     1.959     2.189
    40   1 H        0.924     0.054     2.272     2.357
    41   1 H        0.926     0.059     2.214     2.327
    42   1 H        0.926     0.050     2.314     2.379
    43   1 H        0.800     0.010     2.947     2.697
    44   1 H        0.926     0.062     2.172     2.305
    45   1 H        0.926     0.050     2.315     2.380
    46   1 H        0.800    -0.012     3.343     2.873
    47   1 H        0.923     0.017     2.784     2.609
    48   1 H        0.925     0.064     2.157     2.297
    49   1 H        0.924     0.066     2.132     2.283
    50   1 H        0.924     0.067     2.114     2.274
    51   1 H        0.924     0.056     2.248     2.345
    52   1 H        0.924     0.055     2.262     2.352
    53   1 H        0.926     0.048     2.344     2.394
    54   1 H        0.926     0.060     2.200     2.319
    55   1 H        0.924     0.056     2.246     2.344
    56   1 H        0.924     0.057     2.231     2.336
    57   1 H        0.925     0.084     1.943     2.180
    58   1 H        0.925     0.083     1.947     2.182
    59   1 H        0.924     0.051     2.304     2.374
    60   1 H        0.924     0.054     2.270     2.356
    61   1 H        0.926     0.050     2.324     2.384
    62   1 H        0.924     0.071     2.070     2.250
    63   1 H        0.924     0.074     2.039     2.233
    64   1 H        0.925     0.076     2.018     2.221
    65   1 H        0.924     0.040     2.454     2.450
    66   1 H        0.925     0.061     2.193     2.316
    67   1 H        0.925     0.037     2.491     2.468
    68   1 H        0.925     0.051     2.303     2.373
    69   1 H        0.925     0.073     2.050     2.239
    70   1 H        0.925     0.036     2.510     2.477
    71   1 H        0.925     0.056     2.249     2.345
    72   1 H        0.860     0.163     1.318     1.798

Wiberg/Mayer (AO) data.
largest (>0.10) Wiberg bond orders for each atom

     #   Z sym  total        # sym  WBO       # sym  WBO       # sym  WBO
 ---------------------------------------------------------------------------
     1   7 N    2.974 --     2 C    1.916    72 H    0.936
     2   6 C    3.914 --     1 N    1.916     3 C    0.940    47 H    0.932
     3   6 C    3.966 --    14 C    0.991     4 C    0.979     2 C    0.940
                            31 C    0.935
     4   6 C    3.932 --    13 C    1.406     5 C    1.372     3 C    0.979
     5   6 C    3.957 --     6 C    1.400     4 C    1.372    34 H    0.960
     6   6 C    3.892 --     5 C    1.400     9 C    1.217     7 O    1.096
     7   8 O    2.244 --     6 C    1.096     8 C    0.980
     8   6 C    3.933 --     7 O    0.980    36 H    0.977    35 H    0.973
                            37 H    0.973
     9   6 C    3.889 --    12 C    1.384     6 C    1.217    10 O    1.108
    10   8 O    2.249 --     9 C    1.108    11 C    0.976
    11   6 C    3.928 --    39 H    0.977    10 O    0.976    40 H    0.972
                            38 H    0.972
    12   6 C    3.955 --    13 C    1.413     9 C    1.384    41 H    0.963
    13   6 C    3.943 --    12 C    1.413     4 C    1.406    42 H    0.963
    14   6 C    3.691 --    15 C    1.544     3 C    0.991    44 H    0.958
    15   6 C    3.958 --    14 C    1.544    16 C    1.329    45 H    0.956
    16   6 C    3.731 --    17 N    1.343    15 C    1.329    48 H    0.955
    17   7 N    3.461 --    16 C    1.343    30 C    1.000    18 C    0.995
    18   6 C    3.958 --    17 N    0.995    50 H    0.968    19 C    0.966
                            49 H    0.964
    19   6 C    3.975 --    20 C    1.010    52 H    0.972    51 H    0.971
                            18 C    0.966
    20   6 C    3.937 --    21 C    1.401    29 C    1.384    19 C    1.010
    21   6 C    3.941 --    22 C    1.422    20 C    1.401    53 H    0.968
    22   6 C    3.955 --    21 C    1.422    23 C    1.378    54 H    0.963
    23   6 C    3.886 --    22 C    1.378    26 C    1.215    24 O    1.114
    24   8 O    2.252 --    23 C    1.114    25 C    0.975
    25   6 C    3.926 --    57 H    0.976    24 O    0.975    55 H    0.972
                            56 H    0.972
    26   6 C    3.890 --    29 C    1.390    23 C    1.215    27 O    1.108
    27   8 O    2.253 --    26 C    1.108    28 C    0.977
    28   6 C    3.930 --    27 O    0.977    58 H    0.976    59 H    0.973
                            60 H    0.973
    29   6 C    3.955 --    26 C    1.390    20 C    1.384    61 H    0.962
    30   6 C    3.962 --    17 N    1.000    64 H    0.979    62 H    0.969
                            63 H    0.968
    31   6 C    3.966 --    32 C    1.008    33 C    1.008    65 H    0.960
                             3 C    0.935
    32   6 C    3.980 --    31 C    1.008    68 H    0.981    67 H    0.980
                            66 H    0.978
    33   6 C    3.975 --    31 C    1.008    70 H    0.981    71 H    0.978
                            69 H    0.970
    34   1 H    0.996 --     5 C    0.960
    35   1 H    0.992 --     8 C    0.973
    36   1 H    0.993 --     8 C    0.977
    37   1 H    0.993 --     8 C    0.973
    38   1 H    0.991 --    11 C    0.972
    39   1 H    0.993 --    11 C    0.977
    40   1 H    0.991 --    11 C    0.972
    41   1 H    0.995 --    12 C    0.963
    42   1 H    0.996 --    13 C    0.963
    43   1 H    0.998 --    46 H    0.992
    44   1 H    0.995 --    14 C    0.958
    45   1 H    0.997 --    15 C    0.956
    46   1 H    1.000 --    43 H    0.992
    47   1 H    0.979 --     2 C    0.932
    48   1 H    0.996 --    16 C    0.955
    49   1 H    0.989 --    18 C    0.964
    50   1 H    0.994 --    18 C    0.968
    51   1 H    0.995 --    19 C    0.971
    52   1 H    0.996 --    19 C    0.972
    53   1 H    0.997 --    21 C    0.968
    54   1 H    0.995 --    22 C    0.963
    55   1 H    0.990 --    25 C    0.972
    56   1 H    0.990 --    25 C    0.972
    57   1 H    0.992 --    25 C    0.976
    58   1 H    0.992 --    28 C    0.976
    59   1 H    0.992 --    28 C    0.973
    60   1 H    0.992 --    28 C    0.973
    61   1 H    0.996 --    29 C    0.962
    62   1 H    0.986 --    30 C    0.969
    63   1 H    0.987 --    30 C    0.968
    64   1 H    0.994 --    30 C    0.979
    65   1 H    0.990 --    31 C    0.960
    66   1 H    0.992 --    32 C    0.978
    67   1 H    0.996 --    32 C    0.980
    68   1 H    0.994 --    32 C    0.981
    69   1 H    0.989 --    33 C    0.970
    70   1 H    0.996 --    33 C    0.981
    71   1 H    0.993 --    33 C    0.978
    72   1 H    0.964 --     1 N    0.936
 ---------------------------------------------------------------------------

molecular dipole:
                 x           y           z       tot (Debye)
 q only:        0.928      -0.339       0.355
   full:        0.939      -0.530       0.664       3.218

           -------------------------------------------------
          | TOTAL ENERGY              -99.358908845418 Eh   |
          | GRADIENT NORM               0.001530185063 Eh/α |
          | HOMO-LUMO GAP               1.369052652633 eV   |
           -------------------------------------------------

 * finished run on 2024/04/06 at 11:14:55.720
