   * xtb version 6.6.1 (8d0f1dd) compiled by 'conda@1efc2f54142f' on 2023-08-01
          program call               : xtb xtbopt.xyz --opt crude --input .xc2 --gfn2

   ID    Z sym.   atoms
    1    7 N      1, 17
    2    6 C      2-6, 8, 9, 11-16, 18-23, 25, 26, 28-33
    3    8 O      7, 10, 24, 27
    4    1 H      34-72

          :  Hamiltonian                  GFN2-xTB          :
 * total energy  :   -99.2544148 Eh     change       -0.1945466E-10 Eh
   *** GEOMETRY OPTIMIZATION CONVERGED AFTER 1 ITERATIONS ***

 final structure:
================
72
 xtb: 6.6.1 (8d0f1dd)
N           -1.83829695568889        2.94240091824149        2.26466089631437
C           -1.83257241820375        2.17047374801969        1.28278872439852
C           -2.99913709523723        1.93475132129555        0.37186870115294
C           -3.47005898550560        0.49437225503973        0.46753352763578
C           -4.37625432681612        0.02584270246700       -0.45975895749267
C           -4.86118990620932       -1.26144166228604       -0.42175338548817
O           -5.74741385304133       -1.75114963296154       -1.33384173803473
C           -6.31194197348453       -0.95044474881667       -2.19890242299267
C           -4.43014006013162       -2.16226668352526        0.59496130065481
O           -4.95913000925838       -3.39982571293892        0.54866242204798
C           -4.64555704089948       -4.32062416413487        1.56991456136331
C           -3.52399993017688       -1.68403845291275        1.53184919043602
C           -3.05415897366599       -0.37814327000239        1.47273702121193
C           -2.50036484860449        2.19813135535880       -1.07162130360122
C           -1.55758424092968        1.11736178786078       -1.62872769143209
C           -0.21347915477528        1.11791113618056       -1.01164727347648
N            0.46317204026358        0.03652523567515       -0.64318037476679
C            1.84968479973035        0.13419013606906       -0.25197902354293
C            2.79643042742305       -0.30817883407265       -1.38421625175546
C            4.22495632644096       -0.12202339544109       -0.95541955444219
C            4.87186711685975        1.08528887325221       -1.16181078073062
C            6.17966313583390        1.27079566221008       -0.74100248199717
C            6.86653805021957        0.25069434392269       -0.09874738289663
O            8.13386706458286        0.31855544931515        0.35000514135422
C            8.86889113883462        1.50487150167658        0.15513798254908
C            6.20965820106723       -0.99152484121501        0.12061378304439
O            6.94947540510898       -1.92886005128702        0.74674291990837
C            6.39490374219774       -3.20107138189502        0.98062573915810
C            4.90140674644528       -1.15279585773247       -0.30729871423828
C           -0.12180828759126       -1.28220529117115       -0.68561489261808
C           -4.23167043536958        2.83596121307553        0.67519302768783
C           -4.79312420707057        2.56452237074960        2.06872662486911
C           -3.94244413328277        4.32514736992317        0.51731966127386
H           -4.11471174462295       -0.58680028255893       -3.96984929651685
H           -6.24548176149290        0.12016143489075       -2.07651962043631
H           -7.00943478272319       -1.41645425427937       -2.87155574455085
H           -4.80143223010773       -0.69214465231499       -3.56470940680459
H           -4.93139375673906       -3.93819734441371        2.55367949110107
H           -5.22607853101811       -5.21313233988369        1.34529705865146
H           -3.58021814408267       -4.57058191515309        1.56838438728361
H           -3.18274656643502       -2.32350151747310        2.33035487744237
H           -2.37064153454593       -0.03202387287383        2.23461262781569
H           -3.37463440265985        2.23697421557364       -1.72051684510146
H           -2.00028224605812        3.16608207897889       -1.10656411833604
H           -2.04072975386112        0.14498713628250       -1.55019914873885
H           -1.42629386671255        1.33802790154440       -2.69621931083188
H           -0.93932636859294        1.60662128359732        0.95180618202172
H            0.32407709228452        2.05441142938935       -0.98657197646511
H            2.01993538954266       -0.49102389654156        0.62888920923372
H            2.07823999456394        1.16810754486457        0.01444538057275
H            2.59109977120110        0.29669879812131       -2.26904109285992
H            2.61037439433229       -1.35438919141702       -1.62965893914518
H            4.36262464020955        1.89205987578877       -1.66675501421227
H            6.65912902906929        2.21840397752017       -0.92336394644939
H            8.40324369258358        2.35341619416189        0.66562017796483
H            8.98245396882731        1.73505431903072       -0.90844066987303
H            9.84843559135985        1.31600181305639        0.59002914143348
H            7.17989676952411       -3.77724208295734        1.46643198667689
H            5.52589610753110       -3.14431955340468        1.64421339646828
H            6.11096885804746       -3.69366605832451        0.04546765496759
H            4.39658273737540       -2.09353572253457       -0.15227851442811
H           -0.29024625011918       -1.60710187368468       -1.71453303556432
H           -1.07645069871745       -1.29349549960318       -0.15443333056007
H            0.55030624398277       -1.98798565422952       -0.20428670403524
H           -4.99407756531757        2.54723955407763       -0.05916536454811
H           -4.07136010103064        2.85761126475784        2.82439139551239
H           -5.03285143967913        1.51186938716874        2.19747294366076
H           -5.70208894549772        3.14173755242949        2.21461711826547
H           -3.14085428217229        4.62531055475231        1.18579254824337
H           -3.67431242780995        4.58091226300932       -0.50431121344443
H           -4.83266405236357        4.89159584306364        0.77941601865434
H           -0.97862459015105        3.04324741213879        2.79549754397988

          :  Hamiltonian                  GFN2-xTB          :
         :: total energy             -99.254414751485 Eh    ::
         :: gradient norm              0.001936959116 Eh/a0 ::
         :: HOMO-LUMO gap              0.635130211436 eV    ::
         :: SCC energy              -100.642248624733 Eh    ::
         :: -> dispersion             -0.074915873536 Eh    ::
         :: repulsion energy           1.386514035201 Eh    ::

    * Orbital Energies and Occupations

         #    Occupation            Energy/Eh            Energy/eV
      -------------------------------------------------------------
         1        2.0000           -0.8399902             -22.8573
       ...           ...                  ...                  ...
        78        1.9984           -0.5273030             -14.3486
        79        1.9982           -0.5259672             -14.3123
        80        1.9981           -0.5249962             -14.2859
        81        1.9972           -0.5184834             -14.1087
        82        1.9958           -0.5121811             -13.9372
        83        1.9947           -0.5083869             -13.8339
        84        1.9944           -0.5074119             -13.8074
        85        1.9880           -0.4953713             -13.4797
        86        1.9795           -0.4868509             -13.2479
        87        1.9471           -0.4715671             -12.8320
        88        1.9339           -0.4679549             -12.7337
        89        1.8505           -0.4543251             -12.3628
        90        1.3111           -0.4246795             -11.5561 (HOMO)
        91        0.6071           -0.4013389             -10.9210 (LUMO)
        92        0.3901           -0.3920456             -10.6681
        93        0.0137           -0.3357015              -9.1349
        94        0.0030           -0.3113856              -8.4732
        95        0.0029           -0.3107612              -8.4562
        96        0.0025           -0.3083788              -8.3914
        97        0.0020           -0.3051891              -8.3046
        98        0.0000           -0.1858499              -5.0572
        99        0.0000           -0.1840370              -5.0079
       100                         -0.1345992              -3.6626
       101                         -0.0646186              -1.7584
       ...                                ...                  ...
       171                          0.5781710              15.7328
      -------------------------------------------------------------
                  HL-Gap            0.0233406 Eh            0.6351 eV

     #   Z          covCN         q      C6AA      α(0)
     1   7 N        1.774    -0.270    27.825     7.811
     2   6 C        2.825     0.101    25.753     8.315
     3   6 C        3.909     0.010    20.358     6.413
     4   6 C        2.978     0.011    27.754     8.642
     5   6 C        1.999    -0.150    35.298     9.595
     6   6 C        2.891     0.106    25.648     8.303
     7   8 O        1.709    -0.115    16.044     5.408
     8   6 C        2.753     0.046    26.953     8.501
     9   6 C        2.861     0.131    25.123     8.216
    10   8 O        1.705    -0.236    17.917     5.715
    11   6 C        3.645     0.028    20.432     6.497
    12   6 C        2.914    -0.079    29.975     8.978
    13   6 C        2.923    -0.047    29.158     8.855
    14   6 C        3.813    -0.065    21.744     6.637
    15   6 C        3.802    -0.069    21.823     6.651
    16   6 C        2.843     0.009    27.813     8.643
    17   7 N        2.729     0.010    21.085     6.820
    18   6 C        3.756    -0.016    20.915     6.521
    19   6 C        3.808    -0.070    21.840     6.653
    20   6 C        2.969    -0.001    28.042     8.686
    21   6 C        2.922    -0.049    29.217     8.864
    22   6 C        2.914    -0.068    29.684     8.934
    23   6 C        2.865     0.133    25.086     8.210
    24   8 O        1.706    -0.223    17.696     5.680
    25   6 C        3.645     0.025    20.484     6.505
    26   6 C        2.863     0.133    25.095     8.211
    27   8 O        1.706    -0.226    17.742     5.687
    28   6 C        3.645     0.028    20.445     6.499
    29   6 C        2.920    -0.080    29.994     8.981
    30   6 C        3.700    -0.069    21.981     6.705
    31   6 C        3.855    -0.007    20.672     6.467
    32   6 C        3.756    -0.117    22.798     6.808
    33   6 C        3.755    -0.118    22.824     6.812
    34   1 H        0.715     0.005     3.141     2.810
    35   1 H        0.926     0.080     1.975     2.198
    36   1 H        0.926     0.093     1.852     2.128
    37   1 H        0.715     0.009     3.075     2.781
    38   1 H        0.924     0.055     2.260     2.351
    39   1 H        0.925     0.080     1.981     2.201
    40   1 H        0.924     0.048     2.342     2.393
    41   1 H        0.926     0.050     2.318     2.381
    42   1 H        0.926     0.040     2.449     2.447
    43   1 H        0.925     0.070     2.091     2.261
    44   1 H        0.925     0.053     2.283     2.363
    45   1 H        0.925     0.068     2.103     2.268
    46   1 H        0.923     0.080     1.975     2.198
    47   1 H        0.922     0.004     2.995     2.707
    48   1 H        0.926     0.070     2.087     2.259
    49   1 H        0.924     0.067     2.123     2.279
    50   1 H        0.924     0.067     2.115     2.274
    51   1 H        0.924     0.055     2.258     2.350
    52   1 H        0.924     0.055     2.258     2.350
    53   1 H        0.926     0.045     2.384     2.415
    54   1 H        0.926     0.058     2.220     2.330
    55   1 H        0.924     0.054     2.273     2.358
    56   1 H        0.924     0.056     2.251     2.346
    57   1 H        0.925     0.082     1.959     2.189
    58   1 H        0.925     0.081     1.965     2.192
    59   1 H        0.924     0.048     2.346     2.395
    60   1 H        0.924     0.052     2.297     2.370
    61   1 H        0.926     0.046     2.367     2.406
    62   1 H        0.924     0.076     2.021     2.223
    63   1 H        0.924     0.078     2.005     2.214
    64   1 H        0.925     0.079     1.986     2.204
    65   1 H        0.924     0.043     2.406     2.426
    66   1 H        0.925     0.068     2.110     2.272
    67   1 H        0.925     0.034     2.528     2.486
    68   1 H        0.925     0.050     2.320     2.382
    69   1 H        0.925     0.059     2.205     2.322
    70   1 H        0.925     0.036     2.509     2.477
    71   1 H        0.925     0.054     2.269     2.356
    72   1 H        0.860     0.155     1.367     1.831

Wiberg/Mayer (AO) data.
largest (>0.10) Wiberg bond orders for each atom

     #   Z sym  total        # sym  WBO       # sym  WBO       # sym  WBO
 ---------------------------------------------------------------------------
     1   7 N    3.036 --     2 C    1.952    72 H    0.942
     2   6 C    3.929 --     1 N    1.952     3 C    1.000    47 H    0.900
     3   6 C    3.964 --     2 C    1.000     4 C    0.961    14 C    0.955
                            31 C    0.940
     4   6 C    3.927 --     5 C    1.398    13 C    1.364     3 C    0.961
     5   6 C    2.990 --     4 C    1.398     6 C    1.379
     6   6 C    3.851 --     5 C    1.379     9 C    1.201     7 O    1.031
     7   8 O    2.397 --     8 C    1.270     6 C    1.031
     8   6 C    3.390 --     7 O    1.270    36 H    0.966    35 H    0.959
     9   6 C    3.845 --    12 C    1.382     6 C    1.201    10 O    1.102
    10   8 O    2.251 --     9 C    1.102    11 C    0.973
    11   6 C    3.927 --    39 H    0.977    40 H    0.975    38 H    0.975
                            10 O    0.973
    12   6 C    3.959 --    13 C    1.416     9 C    1.382    41 H    0.961
    13   6 C    3.882 --    12 C    1.416     4 C    1.364    42 H    0.957
    14   6 C    3.970 --    15 C    0.981    44 H    0.973    43 H    0.967
                             3 C    0.955
    15   6 C    3.985 --    16 C    1.061    14 C    0.981    45 H    0.960
                            46 H    0.925
    16   6 C    3.595 --    17 N    1.401    15 C    1.061    48 H    0.957
    17   7 N    3.479 --    16 C    1.401    30 C    0.998    18 C    0.988
    18   6 C    3.956 --    17 N    0.988    50 H    0.968    19 C    0.967
                            49 H    0.964
    19   6 C    3.977 --    20 C    1.008    51 H    0.972    52 H    0.972
                            18 C    0.967
    20   6 C    3.946 --    21 C    1.410    29 C    1.380    19 C    1.008
    21   6 C    3.951 --    22 C    1.416    20 C    1.410    53 H    0.968
    22   6 C    3.960 --    21 C    1.416    23 C    1.384    54 H    0.963
    23   6 C    3.897 --    22 C    1.384    26 C    1.221    24 O    1.109
    24   8 O    2.255 --    23 C    1.109    25 C    0.976
    25   6 C    3.929 --    57 H    0.977    24 O    0.976    55 H    0.973
                            56 H    0.973
    26   6 C    3.900 --    29 C    1.396    23 C    1.221    27 O    1.102
    27   8 O    2.254 --    26 C    1.102    28 C    0.979
    28   6 C    3.933 --    27 O    0.979    58 H    0.977    59 H    0.974
                            60 H    0.973
    29   6 C    3.960 --    26 C    1.396    20 C    1.380    61 H    0.963
    30   6 C    3.959 --    17 N    0.998    64 H    0.978    62 H    0.967
                            63 H    0.963
    31   6 C    3.968 --    33 C    1.009    32 C    1.008    65 H    0.958
                             3 C    0.940
    32   6 C    3.978 --    31 C    1.008    67 H    0.982    68 H    0.981
                            66 H    0.973
    33   6 C    3.982 --    31 C    1.009    70 H    0.983    71 H    0.980
                            69 H    0.977
    34   1 H    0.954 --    37 H    0.927
    35   1 H    0.992 --     8 C    0.959
    36   1 H    0.990 --     8 C    0.966
    37   1 H    1.000 --    34 H    0.927
    38   1 H    0.994 --    11 C    0.975
    39   1 H    0.993 --    11 C    0.977
    40   1 H    0.994 --    11 C    0.975
    41   1 H    0.990 --    12 C    0.961
    42   1 H    0.987 --    13 C    0.957
    43   1 H    0.994 --    14 C    0.967
    44   1 H    0.996 --    14 C    0.973
    45   1 H    0.994 --    15 C    0.960
    46   1 H    0.969 --    15 C    0.925
    47   1 H    0.986 --     2 C    0.900
    48   1 H    0.995 --    16 C    0.957
    49   1 H    0.991 --    18 C    0.964
    50   1 H    0.994 --    18 C    0.968
    51   1 H    0.996 --    19 C    0.972
    52   1 H    0.996 --    19 C    0.972
    53   1 H    0.997 --    21 C    0.968
    54   1 H    0.995 --    22 C    0.963
    55   1 H    0.992 --    25 C    0.973
    56   1 H    0.992 --    25 C    0.973
    57   1 H    0.993 --    25 C    0.977
    58   1 H    0.993 --    28 C    0.977
    59   1 H    0.993 --    28 C    0.974
    60   1 H    0.993 --    28 C    0.973
    61   1 H    0.997 --    29 C    0.963
    62   1 H    0.985 --    30 C    0.967
    63   1 H    0.988 --    30 C    0.963
    64   1 H    0.993 --    30 C    0.978
    65   1 H    0.991 --    31 C    0.958
    66   1 H    0.991 --    32 C    0.973
    67   1 H    0.997 --    32 C    0.982
    68   1 H    0.994 --    32 C    0.981
    69   1 H    0.993 --    33 C    0.977
    70   1 H    0.997 --    33 C    0.983
    71   1 H    0.993 --    33 C    0.980
    72   1 H    0.971 --     1 N    0.942
 ---------------------------------------------------------------------------

molecular dipole:
                 x           y           z       tot (Debye)
 q only:        0.154      -0.322      -0.977
   full:        0.484      -0.659      -0.864       3.024

           -------------------------------------------------
          | TOTAL ENERGY              -99.254414751485 Eh   |
          | GRADIENT NORM               0.001936959116 Eh/α |
          | HOMO-LUMO GAP               0.635130211436 eV   |
           -------------------------------------------------

 * finished run on 2024/04/06 at 11:11:58.088
