   * xtb version 6.6.1 (8d0f1dd) compiled by 'conda@1efc2f54142f' on 2023-08-01
          program call               : xtb xtbopt.xyz --opt crude --input .xc2 --gfn2

   ID    Z sym.   atoms
    1    7 N      1, 17
    2    6 C      2-6, 8, 9, 11-16, 18-23, 25, 26, 28-33
    3    8 O      7, 10, 24, 27
    4    1 H      34-72

          :  Hamiltonian                  GFN2-xTB          :
 * total energy  :   -99.3172821 Eh     change       -0.4831691E-12 Eh
   *** GEOMETRY OPTIMIZATION CONVERGED AFTER 1 ITERATIONS ***

 final structure:
================
72
 xtb: 6.6.1 (8d0f1dd)
N           -1.65061399173342        3.29155425279904        1.99784230276583
C           -1.99233029583883        2.09323334587916        1.68993320449219
C           -3.26714478099947        1.75508817308986        1.18767799726939
C           -3.56688502500966        0.38402755401115        0.88785540969894
C           -4.48100930642021        0.03668332341528       -0.13294398491980
C           -4.78032864636571       -1.27701502761978       -0.43038046635082
O           -5.61956914074909       -1.68514721837347       -1.40528060055770
C           -6.34460935845960       -0.72571177315787       -2.13821787839529
C           -4.17400825462824       -2.32643713315846        0.31746334532885
O           -4.53709974417675       -3.57476872396920       -0.03077056959897
C           -4.06307003891320       -4.66574143630427        0.72414635013404
C           -3.27720592150278       -1.99187507315728        1.32591956125470
C           -2.97027114143309       -0.67230357070758        1.59798944353961
C           -2.09459520209051        2.25787429212563       -2.37976922486403
C           -1.56984093585061        0.97455633021717       -1.89094923653808
C           -0.25267008988787        1.04606486544646       -1.23842321926658
N            0.36736381908296       -0.00524354673415       -0.72410453330375
C            1.72820974954820        0.09286434372557       -0.25249517956334
C            2.73038358249541       -0.37133123014334       -1.32849431369521
C            4.14246145670877       -0.15079392685945       -0.86322974701956
C            4.77002929750034        1.06625274510973       -1.07683878474822
C            6.06743136178445        1.28286076680213       -0.64031864031512
C            6.76462467105965        0.28437837123505        0.02532380060741
O            8.02321176923196        0.38068341673115        0.48899236460017
C            8.73637608984342        1.58205341115381        0.30340123716804
C            6.12763702048052       -0.96760141260759        0.25253831927977
O            6.87728340937747       -1.88055431849058        0.90030627340594
C            6.34939311132903       -3.16232792334312        1.14436718486757
C            4.82853693337131       -1.15974094396509       -0.19165845009737
C           -0.23075358077113       -1.31517622407603       -0.78360176669793
C           -4.30925014049646        2.82306498725957        1.01443455601543
C           -4.66226492650078        3.41558653875262        2.38441064584370
C           -3.84183110548938        3.92868364413056        0.06860106901900
H           -4.93544092922761        0.82392464856712       -0.71096359988650
H           -6.96428823250193       -0.10588061514354       -1.48459878932362
H           -6.98523842889738       -1.29511270967236       -2.80863339269942
H           -5.68187017244060       -0.08564484242588       -2.72897359422375
H           -4.36284208441346       -4.58577141693799        1.77318705987235
H           -4.52390465659695       -5.54745737623604        0.28335016573884
H           -2.97396486319458       -4.75572998763090        0.66085553167560
H           -2.82454333530881       -2.76582562636642        1.92526879771651
H           -2.30739240052870       -0.45789942772972        2.42114676841154
H           -3.01907451005355        2.27056151260462       -2.91786831532330
H           -1.52245656844698        3.16146489905705       -2.31466916154677
H           -2.30440713160914        0.52184185026627       -1.19865912853621
H           -1.52594302949809        0.24881326594376       -2.72241390436228
H           -1.27429634852713        1.26402491574787        1.76512602651026
H            0.24720372871894        1.99834061938124       -1.16377911089847
H            1.84263651246820       -0.52025602992735        0.64494292877593
H            1.94369800880404        1.13020333747038        0.01016397654973
H            2.54909125387463        0.20219351770911       -2.23940670709497
H            2.56924045448158       -1.42765891974449       -1.54750970931494
H            4.25363621277010        1.85551004252955       -1.60169143511107
H            6.53229349141797        2.23614543505592       -0.83071667766585
H            8.23699788649419        2.42396770869673        0.79234046758296
H            8.87488647085158        1.80521283388307       -0.75873470757457
H            9.70722045381852        1.41944731237404        0.76748086218542
H            7.13943793612155       -3.71090362782064        1.65341982360778
H            5.46728147018940       -3.11684573795803        1.79097042935332
H            6.09539130260585       -3.67605497401882        0.21200561714319
H            4.34097662685609       -2.10868646753977       -0.03136161943260
H           -0.37201196522400       -1.63858363426371       -1.81804825750469
H           -1.20698109670507       -1.30830092511765       -0.29162316810172
H            0.41091785608956       -2.03188529871056       -0.27827607451287
H           -5.21962574537529        2.37078671162702        0.61017140726183
H           -3.78519001210804        3.89069978291879        2.81272939819471
H           -5.01089415318305        2.63678649275360        3.05898556388928
H           -5.44937007933992        4.15651235590085        2.27275800938020
H           -2.97361587471345        4.42397264409654        0.49313492828376
H           -3.56812262638575        3.51150914516021       -0.90007029214822
H           -4.63406945484720        4.65881415719553       -0.06992696908296
H           -0.70644101397980        3.42816307157451        2.33742522543250

          :  Hamiltonian                  GFN2-xTB          :
         :: total energy             -99.317282139460 Eh    ::
         :: gradient norm              0.002872562572 Eh/a0 ::
         :: HOMO-LUMO gap              0.075258449815 eV    ::
         :: SCC energy              -100.709576831961 Eh    ::
         :: -> dispersion             -0.072314355843 Eh    ::
         :: repulsion energy           1.390739148319 Eh    ::

    * Orbital Energies and Occupations

         #    Occupation            Energy/Eh            Energy/eV
      -------------------------------------------------------------
         1        2.0000           -0.8151036             -22.1801
       ...           ...                  ...                  ...
        78        1.9982           -0.5305803             -14.4378
        79        1.9981           -0.5299077             -14.4195
        80        1.9976           -0.5258544             -14.3092
        81        1.9968           -0.5217093             -14.1964
        82        1.9950           -0.5144077             -13.9977
        83        1.9937           -0.5108162             -13.9000
        84        1.9921           -0.5072096             -13.8019
        85        1.9859           -0.4980054             -13.5514
        86        1.9773           -0.4904173             -13.3449
        87        1.9234           -0.4707265             -12.8091
        88        1.8371           -0.4580482             -12.4641
        89        1.8341           -0.4577343             -12.4556
        90        1.1222           -0.4235782             -11.5261 (HOMO)
        91        1.0355           -0.4208125             -11.4509 (LUMO)
        92        0.3098           -0.3928207             -10.6892
        93        0.0047           -0.3237825              -8.8106
        94        0.0033           -0.3182448              -8.6599
        95        0.0026           -0.3142898              -8.5523
        96        0.0022           -0.3120496              -8.4913
        97        0.0001           -0.2618796              -7.1261
        98        0.0000           -0.1894794              -5.1560
        99        0.0000           -0.1868628              -5.0848
       100                         -0.1362203              -3.7067
       101                         -0.0690523              -1.8790
       ...                                ...                  ...
       171                          0.5757400              15.6667
      -------------------------------------------------------------
                  HL-Gap            0.0027657 Eh            0.0753 eV

     #   Z          covCN         q      C6AA      α(0)
     1   7 N        1.780    -0.295    28.474     7.903
     2   6 C        2.824     0.077    26.269     8.398
     3   6 C        2.965    -0.008    28.205     8.711
     4   6 C        2.968    -0.001    28.058     8.689
     5   6 C        2.919    -0.084    30.097     8.996
     6   6 C        2.859     0.129    25.169     8.223
     7   8 O        1.706    -0.234    17.877     5.709
     8   6 C        3.644     0.027    20.449     6.500
     9   6 C        2.864     0.129    25.180     8.225
    10   8 O        1.706    -0.224    17.715     5.683
    11   6 C        3.645     0.026    20.473     6.503
    12   6 C        2.910    -0.074    29.834     8.956
    13   6 C        2.921    -0.053    29.314     8.879
    14   6 C        2.837    -0.116    30.936     9.115
    15   6 C        3.804    -0.056    21.582     6.614
    16   6 C        2.850     0.005    27.896     8.656
    17   7 N        2.730     0.018    20.938     6.796
    18   6 C        3.754    -0.018    20.959     6.528
    19   6 C        3.808    -0.071    21.846     6.654
    20   6 C        2.968     0.000    28.018     8.682
    21   6 C        2.922    -0.048    29.198     8.861
    22   6 C        2.914    -0.067    29.667     8.932
    23   6 C        2.865     0.134    25.064     8.206
    24   8 O        1.706    -0.220    17.649     5.672
    25   6 C        3.645     0.024    20.501     6.507
    26   6 C        2.862     0.134    25.078     8.208
    27   8 O        1.706    -0.223    17.702     5.681
    28   6 C        3.645     0.027    20.462     6.502
    29   6 C        2.919    -0.079    29.977     8.978
    30   6 C        3.703    -0.073    22.059     6.715
    31   6 C        3.854    -0.004    20.619     6.458
    32   6 C        3.758    -0.111    22.669     6.788
    33   6 C        3.756    -0.117    22.788     6.806
    34   1 H        0.926     0.055     2.253     2.347
    35   1 H        0.924     0.055     2.260     2.351
    36   1 H        0.925     0.081     1.967     2.193
    37   1 H        0.924     0.047     2.360     2.402
    38   1 H        0.924     0.058     2.226     2.333
    39   1 H        0.925     0.083     1.952     2.185
    40   1 H        0.924     0.048     2.344     2.394
    41   1 H        0.926     0.051     2.304     2.373
    42   1 H        0.926     0.046     2.371     2.408
    43   1 H        0.927     0.055     2.263     2.352
    44   1 H        0.926     0.058     2.221     2.330
    45   1 H        0.922     0.101     1.772     2.082
    46   1 H        0.923     0.096     1.823     2.112
    47   1 H        0.923    -0.004     3.129     2.766
    48   1 H        0.926     0.081     1.972     2.196
    49   1 H        0.924     0.069     2.092     2.262
    50   1 H        0.924     0.072     2.064     2.247
    51   1 H        0.924     0.057     2.239     2.340
    52   1 H        0.924     0.055     2.256     2.349
    53   1 H        0.926     0.047     2.360     2.402
    54   1 H        0.926     0.060     2.201     2.320
    55   1 H        0.924     0.055     2.256     2.349
    56   1 H        0.924     0.057     2.235     2.338
    57   1 H        0.925     0.083     1.946     2.182
    58   1 H        0.925     0.083     1.952     2.185
    59   1 H        0.924     0.049     2.328     2.386
    60   1 H        0.924     0.053     2.284     2.363
    61   1 H        0.926     0.048     2.351     2.398
    62   1 H        0.924     0.077     2.005     2.215
    63   1 H        0.924     0.079     1.990     2.206
    64   1 H        0.925     0.082     1.958     2.188
    65   1 H        0.924     0.041     2.435     2.441
    66   1 H        0.925     0.071     2.080     2.255
    67   1 H        0.925     0.040     2.454     2.450
    68   1 H        0.925     0.053     2.281     2.362
    69   1 H        0.925     0.071     2.071     2.250
    70   1 H        0.925     0.038     2.478     2.462
    71   1 H        0.925     0.052     2.290     2.367
    72   1 H        0.860     0.142     1.454     1.889

Wiberg/Mayer (AO) data.
largest (>0.10) Wiberg bond orders for each atom

     #   Z sym  total        # sym  WBO       # sym  WBO       # sym  WBO
 ---------------------------------------------------------------------------
     1   7 N    2.711 --     2 C    1.668    72 H    0.949
     2   6 C    3.927 --     1 N    1.668     3 C    1.268    47 H    0.927
     3   6 C    3.594 --     2 C    1.268     4 C    1.195    31 C    1.012
     4   6 C    3.966 --    13 C    1.310     5 C    1.281     3 C    1.195
     5   6 C    3.911 --     6 C    1.431     4 C    1.281    34 H    0.956
     6   6 C    3.909 --     5 C    1.431     9 C    1.207     7 O    1.096
     7   8 O    2.253 --     6 C    1.096     8 C    0.977
     8   6 C    3.932 --     7 O    0.977    36 H    0.977    35 H    0.974
                            37 H    0.974
     9   6 C    3.842 --    12 C    1.360     6 C    1.207    10 O    1.110
    10   8 O    2.247 --     9 C    1.110    11 C    0.976
    11   6 C    3.930 --    39 H    0.977    10 O    0.976    40 H    0.973
                            38 H    0.973
    12   6 C    3.963 --    13 C    1.450     9 C    1.360    41 H    0.963
    13   6 C    3.878 --    12 C    1.450     4 C    1.310    42 H    0.964
    14   6 C    3.136 --    15 C    1.094    43 H    0.982    44 H    0.981
    15   6 C    3.982 --    14 C    1.094    16 C    1.072    46 H    0.890
                            45 H    0.875
    16   6 C    3.606 --    17 N    1.420    15 C    1.072    48 H    0.957
    17   7 N    3.490 --    16 C    1.420    30 C    1.002    18 C    0.987
    18   6 C    3.953 --    17 N    0.987    50 H    0.967    19 C    0.965
                            49 H    0.965
    19   6 C    3.977 --    20 C    1.008    52 H    0.972    51 H    0.971
                            18 C    0.965
    20   6 C    3.942 --    21 C    1.407    29 C    1.381    19 C    1.008
    21   6 C    3.948 --    22 C    1.419    20 C    1.407    53 H    0.968
    22   6 C    3.958 --    21 C    1.419    23 C    1.381    54 H    0.963
    23   6 C    3.893 --    22 C    1.381    26 C    1.218    24 O    1.113
    24   8 O    2.256 --    23 C    1.113    25 C    0.975
    25   6 C    3.927 --    57 H    0.977    24 O    0.975    55 H    0.972
                            56 H    0.972
    26   6 C    3.896 --    29 C    1.393    23 C    1.218    27 O    1.106
    27   8 O    2.255 --    26 C    1.106    28 C    0.978
    28   6 C    3.931 --    27 O    0.978    58 H    0.977    59 H    0.973
                            60 H    0.973
    29   6 C    3.958 --    26 C    1.393    20 C    1.381    61 H    0.962
    30   6 C    3.957 --    17 N    1.002    64 H    0.978    62 H    0.962
                            63 H    0.958
    31   6 C    3.970 --     3 C    1.012    33 C    0.986    32 C    0.973
                            65 H    0.956
    32   6 C    3.947 --    67 H    0.985    68 H    0.979    66 H    0.973
                            31 C    0.973
    33   6 C    3.943 --    31 C    0.986    71 H    0.980    69 H    0.971
                            70 H    0.968
    34   1 H    0.995 --     5 C    0.956
    35   1 H    0.994 --     8 C    0.974
    36   1 H    0.993 --     8 C    0.977
    37   1 H    0.994 --     8 C    0.974
    38   1 H    0.992 --    11 C    0.973
    39   1 H    0.993 --    11 C    0.977
    40   1 H    0.993 --    11 C    0.973
    41   1 H    0.995 --    12 C    0.963
    42   1 H    0.997 --    13 C    0.964
    43   1 H    0.996 --    14 C    0.982
    44   1 H    0.996 --    14 C    0.981
    45   1 H    0.948 --    15 C    0.875
    46   1 H    0.947 --    15 C    0.890
    47   1 H    0.968 --     2 C    0.927
    48   1 H    0.993 --    16 C    0.957
    49   1 H    0.991 --    18 C    0.965
    50   1 H    0.994 --    18 C    0.967
    51   1 H    0.995 --    19 C    0.971
    52   1 H    0.996 --    19 C    0.972
    53   1 H    0.997 --    21 C    0.968
    54   1 H    0.995 --    22 C    0.963
    55   1 H    0.991 --    25 C    0.972
    56   1 H    0.991 --    25 C    0.972
    57   1 H    0.992 --    25 C    0.977
    58   1 H    0.992 --    28 C    0.977
    59   1 H    0.993 --    28 C    0.973
    60   1 H    0.992 --    28 C    0.973
    61   1 H    0.996 --    29 C    0.962
    62   1 H    0.985 --    30 C    0.962
    63   1 H    0.987 --    30 C    0.958
    64   1 H    0.993 --    30 C    0.978
    65   1 H    0.989 --    31 C    0.956
    66   1 H    0.990 --    32 C    0.973
    67   1 H    0.996 --    32 C    0.985
    68   1 H    0.991 --    32 C    0.979
    69   1 H    0.990 --    33 C    0.971
    70   1 H    0.996 --    33 C    0.968
    71   1 H    0.992 --    33 C    0.980
    72   1 H    0.969 --     1 N    0.949
 ---------------------------------------------------------------------------

molecular dipole:
                 x           y           z       tot (Debye)
 q only:        0.702      -0.579      -0.966
   full:        0.809      -0.866      -0.873       3.740

           -------------------------------------------------
          | TOTAL ENERGY              -99.317282139460 Eh   |
          | GRADIENT NORM               0.002872562572 Eh/α |
          | HOMO-LUMO GAP               0.075258449815 eV   |
           -------------------------------------------------

 * finished run on 2024/04/06 at 11:12:02.327
