   * xtb version 6.6.1 (8d0f1dd) compiled by 'conda@1efc2f54142f' on 2023-08-01
          program call               : xtb xtbopt.xyz --opt crude --input .xc2 --gfn2

   ID    Z sym.   atoms
    1    6 C      1, 3, 5-7, 10, 11, 14
    2    7 N      2, 4, 9, 13
    3    8 O      8, 12
    4    1 H      15-25

          :  Hamiltonian                  GFN2-xTB          :
 * total energy  :   -42.1106465 Eh     change       -0.8952838E-12 Eh
   *** GEOMETRY OPTIMIZATION CONVERGED AFTER 1 ITERATIONS ***

 final structure:
================
25
 xtb: 6.6.1 (8d0f1dd)
C            3.20893784472170        1.01289217994227       -0.32157892422728
N            2.32073531663334        0.01874651466332       -0.26393902212883
C            2.56233797390388       -1.30941215207222       -0.29300599633007
N            1.39329555366134       -1.99647902889478       -0.18822813821549
C            0.37901227082993       -1.09465014976773       -0.08972378793181
C            0.94251451278141        0.16910387965128       -0.13544487929093
C            0.14188062108401        1.37057865643872       -0.07582764829184
O            0.55956715608119        2.50299476387612       -0.10743434042209
N           -1.21745474006268        1.06421803249608        0.02186113894933
C           -2.15401324665182        2.17855098532014        0.06426098378059
C           -1.80495586370666       -0.18571673792398        0.07607568512312
O           -2.99086177526053       -0.33746521910011        0.16072946955999
N           -0.94155596843372       -1.30455757981580        0.02636255567131
C           -1.51436877336951       -2.63416453886026        0.08437858910400
H            2.53620765575683        1.86133258941328        2.02556309534849
H            4.23489420866858        0.76987671324905       -0.55819900528745
H            2.84447498814589        2.02417685334689       -0.34882786316589
H            3.52959257561904       -1.75961954337816       -0.38594469474780
H           -1.58267409198300        3.10350150849461        0.04286644968664
H           -2.82562886646014        2.12924056858151       -0.79339278760427
H           -2.75474210314749        2.12290246561774        0.97195892947550
H           -1.17351602199249       -3.15875240947380        0.97751278366076
H           -1.25337728417214       -3.20321915387460       -0.80803840028155
H           -2.59712479886394       -2.52262639316422        0.13120650086652
H            1.31725437031708       -3.00321426316542       -0.18201907540132

          :  Hamiltonian                  GFN2-xTB          :
         :: total energy             -42.110646527503 Eh    ::
         :: gradient norm              0.009478624397 Eh/a0 ::
         :: HOMO-LUMO gap              0.708435670969 eV    ::
         :: SCC energy               -42.632495985771 Eh    ::
         :: -> dispersion             -0.023375237227 Eh    ::
         :: repulsion energy           0.521689202475 Eh    ::

    * Orbital Energies and Occupations

         #    Occupation            Energy/Eh            Energy/eV
      -------------------------------------------------------------
         1        2.0000           -0.9149291             -24.8965
       ...           ...                  ...                  ...
        25        1.9999           -0.6712353             -18.2652
        26        1.9999           -0.6708012             -18.2534
        27        1.9999           -0.6617836             -18.0080
        28        1.9995           -0.6392838             -17.3958
        29        1.9993           -0.6353673             -17.2892
        30        1.9991           -0.6294512             -17.1282
        31        1.9985           -0.6226121             -16.9421
        32        1.9950           -0.6030396             -16.4095
        33        1.9842           -0.5847111             -15.9108
        34        1.9551           -0.5679708             -15.4553
        35        1.9483           -0.5656767             -15.3928
        36        1.9427           -0.5639819             -15.3467
        37        1.4710           -0.5243922             -14.2694 (HOMO)
        38        0.6988           -0.4983577             -13.5610 (LUMO)
        39        0.0054           -0.4144767             -11.2785
        40        0.0030           -0.4054828             -11.0337
        41        0.0004           -0.3719439             -10.1211
        42        0.0000           -0.2902200              -7.8973
        43                         -0.2102658              -5.7216
        44                         -0.1897875              -5.1644
        45                         -0.1470573              -4.0016
        46                         -0.1188991              -3.2354
        47                         -0.0856224              -2.3299
        48                         -0.0530367              -1.4432
       ...                                ...                  ...
        67                          0.5520999              15.0234
      -------------------------------------------------------------
                  HL-Gap            0.0260345 Eh            0.7084 eV

     #   Z          covCN         q      C6AA      α(0)
     1   6 C        2.788    -0.064    29.573     8.908
     2   7 N        2.810     0.127    19.066     6.485
     3   6 C        3.042     0.030    27.296     8.569
     4   7 N        2.781    -0.057    22.343     7.020
     5   6 C        3.024     0.120    25.339     8.257
     6   6 C        3.112    -0.037    28.760     8.785
     7   6 C        2.764     0.275    22.355     7.743
     8   8 O        0.858    -0.353    20.768     6.110
     9   7 N        2.746    -0.080    22.789     7.090
    10   6 C        3.710    -0.063    21.850     6.680
    11   6 C        2.728     0.318    21.592     7.607
    12   8 O        0.860    -0.347    20.649     6.092
    13   7 N        2.739    -0.052    22.245     7.005
    14   6 C        3.696    -0.074    22.086     6.722
    15   1 H        0.000     0.015     7.008     4.840
    16   1 H        0.926     0.112     1.678     2.026
    17   1 H        0.926     0.146     1.420     1.864
    18   1 H        0.926     0.124     1.580     1.966
    19   1 H        0.925     0.117     1.636     2.000
    20   1 H        0.924     0.104     1.749     2.068
    21   1 H        0.925     0.105     1.737     2.061
    22   1 H        0.924     0.088     1.903     2.157
    23   1 H        0.925     0.085     1.924     2.169
    24   1 H        0.925     0.130     1.536     1.938
    25   1 H        0.860     0.230     0.966     1.540

Wiberg/Mayer (AO) data.
largest (>0.10) Wiberg bond orders for each atom

     #   Z sym  total        # sym  WBO       # sym  WBO       # sym  WBO
 ---------------------------------------------------------------------------
     1   6 C    3.465 --     2 N    1.303    16 H    0.965    17 H    0.950
                            15 H    0.118
     2   7 N    3.758 --     1 C    1.303     3 C    1.261     6 C    1.093
     3   6 C    3.674 --     2 N    1.261     4 N    1.246    18 H    0.954
     4   7 N    3.537 --     3 C    1.246     5 C    1.192    25 H    0.919
     5   6 C    3.941 --     6 C    1.351    13 N    1.220     4 N    1.192
     6   6 C    3.850 --     5 C    1.351     2 N    1.093     7 C    1.083
     7   6 C    3.959 --     8 O    1.687     9 N    1.094     6 C    1.083
     8   8 O    2.021 --     7 C    1.687     9 N    0.139
     9   7 N    3.531 --    11 C    1.126     7 C    1.094    10 C    0.972
                             8 O    0.139    12 O    0.133
    10   6 C    3.896 --     9 N    0.972    19 H    0.965    21 H    0.957
                            20 H    0.956
    11   6 C    3.958 --    12 O    1.708     9 N    1.126    13 N    1.033
    12   8 O    2.047 --    11 C    1.708     9 N    0.133    13 N    0.118
    13   7 N    3.533 --     5 C    1.220    11 C    1.033    14 C    0.975
                            12 O    0.118
    14   6 C    3.918 --    13 N    0.975    23 H    0.968    22 H    0.967
                            24 H    0.962
    15   1 H    0.155 --     1 C    0.118
    16   1 H    0.985 --     1 C    0.965
    17   1 H    0.977 --     1 C    0.950
    18   1 H    0.984 --     3 C    0.954
    19   1 H    0.983 --    10 C    0.965
    20   1 H    0.976 --    10 C    0.956
    21   1 H    0.976 --    10 C    0.957
    22   1 H    0.985 --    14 C    0.967
    23   1 H    0.986 --    14 C    0.968
    24   1 H    0.982 --    14 C    0.962
    25   1 H    0.947 --     4 N    0.919
 ---------------------------------------------------------------------------

molecular dipole:
                 x           y           z       tot (Debye)
 q only:        2.169      -2.085      -0.301
   full:        2.442      -2.555      -0.334       9.024

           -------------------------------------------------
          | TOTAL ENERGY              -42.110646527503 Eh   |
          | GRADIENT NORM               0.009478624397 Eh/α |
          | HOMO-LUMO GAP               0.708435670969 eV   |
           -------------------------------------------------

 * finished run on 2024/06/05 at 20:00:20.091
