   * xtb version 6.6.1 (8d0f1dd) compiled by 'conda@1efc2f54142f' on 2023-08-01
          program call               : xtb xtbopt.xyz --opt crude --input .xc2 --gfn2

   ID    Z sym.   atoms
    1    6 C      1, 3, 5-7, 10, 11, 14
    2    7 N      2, 4, 9, 13
    3    8 O      8, 12
    4    1 H      15-25

          :  Hamiltonian                  GFN2-xTB          :
 * total energy  :   -42.1043342 Eh     change       -0.1634248E-12 Eh
   *** GEOMETRY OPTIMIZATION CONVERGED AFTER 1 ITERATIONS ***

 final structure:
================
25
 xtb: 6.6.1 (8d0f1dd)
C            3.21369535990153        1.12580047698452       -0.02321254710974
N            2.28195914039312        0.03024662062410       -0.02845850625354
C            2.57977620024927       -1.26532365145440       -0.07135688843684
N            1.44300313896038       -1.99907424478201       -0.03498765429740
C            0.38711459731567       -1.13963477885629        0.03456019868306
C            0.90982766791048        0.14767214304555        0.03832041341277
C            0.08396067563420        1.31603639551562        0.08881784708606
O            0.43627013791141        2.47376831166131        0.06969515775614
N           -1.30921740322844        0.96614114942142        0.16625175324078
C           -2.18630666089408        1.97586765196802        0.24050804205056
C           -1.84395312104700       -0.35505157781951        0.17779182579231
O           -3.02718883469753       -0.54461837850164        0.24318263530725
N           -0.93303836454539       -1.40749638714809        0.08840431750741
C           -1.43350677770789       -2.77001444056000        0.09891101253776
H            3.72160023651391        1.18553286665914        0.94080962961541
H            3.95904538222836        0.99128294322322       -0.80570651194808
H            2.66716882477911        2.05351406680350       -0.18833235072948
H            3.56920691280351       -1.67311685986711       -0.12591346454241
H           -1.79654710256156        2.97892661663553        0.24728821243031
H           -3.00442119411805        4.29752702313315       -1.67296510518587
H           -3.23614628385667        1.75356792432764        0.29623528088537
H           -1.08836207860064       -3.29456189071416        0.99051075587380
H           -1.11192521218747       -3.29727239887795       -0.79800981723551
H           -2.52126656247232       -2.72358328450551        0.11390515101969
H            1.39968283541613       -3.00789775531617       -0.05507776955962

          :  Hamiltonian                  GFN2-xTB          :
         :: total energy             -42.104334185948 Eh    ::
         :: gradient norm              0.003837054381 Eh/a0 ::
         :: HOMO-LUMO gap              0.221205600239 eV    ::
         :: SCC energy               -42.624670463012 Eh    ::
         :: -> dispersion             -0.022678711990 Eh    ::
         :: repulsion energy           0.520244036338 Eh    ::

    * Orbital Energies and Occupations

         #    Occupation            Energy/Eh            Energy/eV
      -------------------------------------------------------------
         1        2.0000           -0.9112586             -24.7966
       ...           ...                  ...                  ...
        25        2.0000           -0.6713063             -18.2672
        26        2.0000           -0.6692410             -18.2110
        27        2.0000           -0.6630264             -18.0419
        28        1.9999           -0.6332384             -17.2313
        29        1.9999           -0.6300682             -17.1450
        30        1.9999           -0.6279764             -17.0881
        31        1.9998           -0.6190014             -16.8439
        32        1.9997           -0.6143999             -16.7187
        33        1.9997           -0.6129062             -16.6780
        34        1.9982           -0.5854707             -15.9315
        35        1.9941           -0.5667694             -15.4226
        36        1.9901           -0.5585533             -15.1990
        37        1.0681           -0.4766879             -12.9713 (HOMO)
        38        0.8138           -0.4685587             -12.7501 (LUMO)
        39        0.1164           -0.4304396             -11.7129
        40        0.0174           -0.3994980             -10.8709
        41        0.0031           -0.3722823             -10.1303
        42        0.0000           -0.2877224              -7.8293
        43        0.0000           -0.2085954              -5.6762
        44                         -0.1972021              -5.3661
        45                         -0.1509304              -4.1070
        46                         -0.1455170              -3.9597
        47                         -0.0793981              -2.1605
        48                         -0.0539880              -1.4691
       ...                                ...                  ...
        67                          0.5483401              14.9211
      -------------------------------------------------------------
                  HL-Gap            0.0081292 Eh            0.2212 eV

     #   Z          covCN         q      C6AA      α(0)
     1   6 C        3.691    -0.094    22.483     6.785
     2   7 N        2.830     0.077    19.893     6.624
     3   6 C        3.049     0.047    26.898     8.506
     4   7 N        2.792    -0.058    22.358     7.023
     5   6 C        3.040     0.106    25.625     8.303
     6   6 C        3.109    -0.023    28.441     8.737
     7   6 C        2.776     0.254    22.729     7.808
     8   8 O        0.857    -0.362    20.938     6.135
     9   7 N        2.741    -0.031    21.835     6.940
    10   6 C        2.816    -0.022    28.533     8.752
    11   6 C        2.736     0.308    21.760     7.637
    12   8 O        0.859    -0.349    20.696     6.099
    13   7 N        2.737    -0.050    22.199     6.998
    14   6 C        3.698    -0.073    22.076     6.720
    15   1 H        0.924     0.108     1.714     2.047
    16   1 H        0.925     0.104     1.747     2.067
    17   1 H        0.925     0.134     1.504     1.918
    18   1 H        0.926     0.124     1.584     1.968
    19   1 H        0.926     0.135     1.500     1.915
    20   1 H        0.000     0.010     7.221     4.913
    21   1 H        0.926     0.130     1.531     1.935
    22   1 H        0.924     0.084     1.936     2.176
    23   1 H        0.925     0.084     1.941     2.179
    24   1 H        0.925     0.127     1.556     1.951
    25   1 H        0.860     0.229     0.970     1.543

Wiberg/Mayer (AO) data.
largest (>0.10) Wiberg bond orders for each atom

     #   Z sym  total        # sym  WBO       # sym  WBO       # sym  WBO
 ---------------------------------------------------------------------------
     1   6 C    3.917 --     2 N    0.987    16 H    0.965    17 H    0.962
                            15 H    0.955
     2   7 N    3.649 --     3 C    1.379     6 C    1.146     1 C    0.987
     3   6 C    3.821 --     2 N    1.379     4 N    1.267    18 H    0.953
     4   7 N    3.579 --     3 C    1.267     5 C    1.193    25 H    0.919
     5   6 C    3.899 --     6 C    1.328     4 N    1.193    13 N    1.191
     6   6 C    3.909 --     5 C    1.328     2 N    1.146     7 C    1.116
     7   6 C    3.869 --     8 O    1.675     6 C    1.116     9 N    0.985
     8   8 O    1.959 --     7 C    1.675     9 N    0.108
     9   7 N    3.615 --    10 C    1.347    11 C    1.015     7 C    0.985
                             8 O    0.108
    10   6 C    3.357 --     9 N    1.347    21 H    0.960    19 H    0.956
    11   6 C    3.904 --    12 O    1.709    13 N    1.086     9 N    1.015
    12   8 O    2.021 --    11 C    1.709    13 N    0.135
    13   7 N    3.565 --     5 C    1.191    11 C    1.086    14 C    0.971
                            12 O    0.135
    14   6 C    3.924 --    23 H    0.972    22 H    0.971    13 N    0.971
                            24 H    0.965
    15   1 H    0.983 --     1 C    0.955
    16   1 H    0.986 --     1 C    0.965
    17   1 H    0.982 --     1 C    0.962
    18   1 H    0.984 --     3 C    0.953
    19   1 H    0.981 --    10 C    0.956
    20   1 H    0.018
    21   1 H    0.982 --    10 C    0.960
    22   1 H    0.991 --    14 C    0.971
    23   1 H    0.991 --    14 C    0.972
    24   1 H    0.983 --    14 C    0.965
    25   1 H    0.947 --     4 N    0.919
 ---------------------------------------------------------------------------

molecular dipole:
                 x           y           z       tot (Debye)
 q only:        2.381      -2.020      -0.004
   full:        2.618      -2.466      -0.014       9.141

           -------------------------------------------------
          | TOTAL ENERGY              -42.104334185948 Eh   |
          | GRADIENT NORM               0.003837054381 Eh/α |
          | HOMO-LUMO GAP               0.221205600239 eV   |
           -------------------------------------------------

 * finished run on 2024/06/05 at 19:59:19.050
