   * xtb version 6.6.1 (8d0f1dd) compiled by 'conda@1efc2f54142f' on 2023-08-01
          program call               : xtb struc.xyz --opt loose --input .xc1 --gfn2

   ID    Z sym.   atoms
    1    7 N      1, 17
    2    6 C      2-6, 8, 9, 11-16, 18-23, 25, 26, 28-33
    3    8 O      7, 10, 24, 27
    4    1 H      34-72
constraining bond 20 26 to    5.0000000 Å, actual value:    2.4170042 Å

          :  Hamiltonian                  GFN2-xTB          :
 * total energy  :   -98.2128476 Eh     change       -0.4035485E-08 Eh
 * total energy  :   -98.4620707 Eh     change       -0.2492231E+00 Eh
 * total energy  :   -98.6098010 Eh     change       -0.1477302E+00 Eh
 * total energy  :   -98.6966742 Eh     change       -0.8687321E-01 Eh
 * total energy  :   -98.7611406 Eh     change       -0.6446634E-01 Eh
 * total energy  :   -98.8102510 Eh     change       -0.4911048E-01 Eh
 * total energy  :   -98.8460548 Eh     change       -0.3580378E-01 Eh
 * total energy  :   -98.8664734 Eh     change       -0.2041855E-01 Eh
 * total energy  :   -98.8801454 Eh     change       -0.1367203E-01 Eh
 * total energy  :   -98.8962516 Eh     change       -0.1610620E-01 Eh
 * total energy  :   -99.1720860 Eh     change       -0.2456293E-03 Eh
 * total energy  :   -99.1723832 Eh     change       -0.2972016E-03 Eh
 * total energy  :   -99.1726306 Eh     change       -0.2474290E-03 Eh
 * total energy  :   -99.1728274 Eh     change       -0.1967860E-03 Eh
 * total energy  :   -99.1729545 Eh     change       -0.1271012E-03 Eh
 * total energy  :   -99.1730387 Eh     change       -0.8419810E-04 Eh
 * total energy  :   -99.1730911 Eh     change       -0.5244262E-04 Eh
 * total energy  :   -99.1731428 Eh     change       -0.5173663E-04 Eh
 * total energy  :   -99.1731862 Eh     change       -0.4333583E-04 Eh
   *** GEOMETRY OPTIMIZATION CONVERGED AFTER 91 ITERATIONS ***

 final structure:
================
72
 xtb: 6.6.1 (8d0f1dd)
N           -1.97418284861349        3.13569672026418        2.00029271328040
C           -2.00884624660886        2.38907876419608        0.99908799637577
C           -3.24834450902829        2.08634684191713        0.20333074394582
C           -3.56455769343095        0.60079666013108        0.30725657455064
C           -4.51900646334365        0.03354324247620       -0.53859286049231
C           -4.86670832832848       -1.30357348121626       -0.44540664587669
O           -5.78051255174923       -1.92548403464372       -1.21851255492083
C           -6.51402437338004       -1.17558530187201       -2.15790913766360
C           -4.23788698507638       -2.12362947912866        0.53032579236646
O           -4.64010715568112       -3.40911885563844        0.55310468896483
C           -4.12936841528315       -4.27078171771667        1.54346971276687
C           -3.29133460649686       -1.55362486298009        1.36721365057210
C           -2.96247124516756       -0.20954246637288        1.25771451016223
C           -2.92241970967543        2.45342032398401       -1.26776405760591
C           -1.88511128723005        1.52798716405128       -1.92691955889202
C           -0.49988912440938        1.87940875570764       -1.54477248388296
N            0.49829032283694        1.02571943471958       -1.38107403572175
C            1.80113863348269        1.49387548979227       -0.96629203335353
C            2.90691582042495        1.05247519996077       -1.94432514153444
C            3.23638187258192       -0.36338360161671       -1.76033650388997
C            4.21086427064425       -1.06027613498129       -1.16119563014302
C            5.37713843400876       -0.50742139663548       -0.47493285938369
C            6.47641987943465       -0.97536100017694        0.21243092773568
O            7.34608626092865       -0.09590405258521        0.76126165186746
C            7.17811553465571        1.29565982189721        0.70721860081866
C            7.01975500068114       -2.35197628890123        0.53775743979300
O            8.11433078780384       -2.27383117277627        1.34246404288770
C            8.73557050860746       -3.48372276395480        1.70060332365032
C            6.42892532190157       -3.42307518915681        0.05291917313762
C            0.34603680250852       -0.40068045810175       -1.50579180143486
C           -4.50072909023609        2.87814644291267        0.68402374632909
C           -4.90181328228673        2.47938329524538        2.10244458161271
C           -4.32661542429914        4.39264202439170        0.60781559864379
H           -5.01096609609800        0.65073961750982       -1.27146931689801
H           -7.08042323492856       -0.37272962792032       -1.67629537566945
H           -7.20655554533855       -1.87887789650290       -2.61631881416934
H           -5.86453263462012       -0.75371932575236       -2.93196283822599
H           -4.35698322304103       -3.90429635999748        2.54887025741803
H           -4.62838370538652       -5.22487226761987        1.38553724140666
H           -3.04819304941695       -4.40623586987954        1.43953637177662
H           -2.80900067122399       -2.14771003483437        2.12626733220964
H           -2.24489688562131        0.20423926500000        1.94920560967183
H           -3.84378298047614        2.41145932744379       -1.84659187064317
H           -2.56094761973268        3.48108098357862       -1.30458012959533
H           -2.11607894590567        0.49010522947201       -1.68474257116979
H           -1.98059022720899        1.64719596135830       -3.01405176137789
H           -1.11302449935225        1.90340166002983        0.56911826619325
H           -0.25425145557229        2.92972585286781       -1.48695767357149
H            2.02532400370936        1.08794327148368        0.02520754442827
H            1.78221155794093        2.58285060283588       -0.90199163883054
H            3.78586257750998        1.68956628216800       -1.77364841973443
H            2.56912226338295        1.23103437509108       -2.96960371335499
H            4.16041391856753       -2.14507238050150       -1.16238232593279
H            5.34626091621947        0.57521118901766       -0.51755245391543
H            6.24234086455079        1.61121037008149        1.18035300710296
H            7.21967743043994        1.67477381475374       -0.31891237723973
H            8.01682043016470        1.70303246231003        1.26971084317854
H            9.58291342930388       -3.20746151212500        2.32500216584076
H            8.05427272513740       -4.12722427479576        2.26609527096248
H            9.08969799491180       -4.02576716514133        0.81764209868040
H            6.55478867790401       -4.47986660597595        0.06668205716751
H           -0.31161935992753       -0.64972979139610       -2.33492336732895
H           -0.04855272279333       -0.83963408859063       -0.58677713104342
H            1.35149609502327       -0.82513295776069       -1.69303318348942
H           -5.31923492443391        2.59642494640190        0.01166695671515
H           -4.12166785430436        2.76045186004631        2.80257675124989
H           -5.07530696584633        1.40868210340752        2.17660492115942
H           -5.81759466088444        2.99411717597249        2.38031438642714
H           -3.49289715771431        4.70740131419713        1.22770777202176
H           -4.16812635730963        4.73457971028550       -0.41144911682922
H           -5.22737807343025        4.87232230832788        0.98153327000077
H           -1.07573854738527        3.28771207444681        2.44796663336979

          :  Hamiltonian                  GFN2-xTB          :
         :: total energy             -99.173186186656 Eh    ::
         :: gradient norm              0.003836211415 Eh/a0 ::
         :: HOMO-LUMO gap              0.083956989811 eV    ::
         :: SCC energy              -100.532004903496 Eh    ::
         :: -> dispersion             -0.071968556931 Eh    ::
         :: repulsion energy           1.353720645016 Eh    ::

    * Orbital Energies and Occupations

         #    Occupation            Energy/Eh            Energy/eV
      -------------------------------------------------------------
         1        2.0000           -0.8078975             -21.9840
       ...           ...                  ...                  ...
        78        1.9981           -0.5277191             -14.3600
        79        1.9975           -0.5234118             -14.2428
        80        1.9971           -0.5211699             -14.1818
        81        1.9969           -0.5201606             -14.1543
        82        1.9956           -0.5145322             -14.0011
        83        1.9950           -0.5123690             -13.9423
        84        1.9938           -0.5091663             -13.8551
        85        1.9783           -0.4891076             -13.3093
        86        1.9381           -0.4721585             -12.8481
        87        1.9350           -0.4713658             -12.8265
        88        1.8534           -0.4577955             -12.4572
        89        1.7382           -0.4476035             -12.1799
        90        1.1483           -0.4223564             -11.4929 (HOMO)
        91        1.0519           -0.4192710             -11.4089 (LUMO)
        92        0.3535           -0.3932651             -10.7013
        93        0.0203           -0.3451164              -9.3911
        94        0.0143           -0.3394640              -9.2373
        95        0.0030           -0.3147085              -8.5637
        96        0.0025           -0.3117060              -8.4820
        97        0.0002           -0.2698906              -7.3441
        98        0.0000           -0.2134508              -5.8083
        99        0.0000           -0.1889889              -5.1427
       100                         -0.1347060              -3.6655
       101                         -0.0745917              -2.0297
       ...                                ...                  ...
       171                          0.6513150              17.7232
      -------------------------------------------------------------
                  HL-Gap            0.0030854 Eh            0.0840 eV

     #   Z          covCN         q      C6AA      α(0)
     1   7 N        1.774    -0.271    27.843     7.814
     2   6 C        2.826     0.102    25.728     8.312
     3   6 C        3.908     0.006    20.411     6.422
     4   6 C        2.975     0.002    27.973     8.676
     5   6 C        2.921    -0.079    29.984     8.980
     6   6 C        2.862     0.131    25.140     8.219
     7   8 O        1.706    -0.228    17.786     5.694
     8   6 C        3.644     0.027    20.450     6.500
     9   6 C        2.864     0.130    25.141     8.219
    10   8 O        1.706    -0.226    17.750     5.688
    11   6 C        3.645     0.026    20.463     6.501
    12   6 C        2.914    -0.072    29.791     8.950
    13   6 C        2.922    -0.050    29.245     8.868
    14   6 C        3.813    -0.066    21.747     6.638
    15   6 C        3.802    -0.068    21.799     6.647
    16   6 C        2.844     0.008    27.822     8.644
    17   7 N        2.729     0.020    20.899     6.790
    18   6 C        3.759    -0.015    20.895     6.517
    19   6 C        3.802    -0.049    21.454     6.594
    20   6 C        1.969    -0.093    33.631     9.365
    21   6 C        2.885    -0.030    28.741     8.789
    22   6 C        2.890    -0.072    29.803     8.950
    23   6 C        2.830     0.140    24.941     8.184
    24   8 O        1.709    -0.214    17.548     5.656
    25   6 C        3.635     0.027    20.508     6.517
    26   6 C        2.841     0.150    24.737     8.151
    27   8 O        1.705    -0.230    17.808     5.698
    28   6 C        3.650     0.030    20.390     6.486
    29   6 C        1.916    -0.143    35.149     9.575
    30   6 C        3.698    -0.081    22.214     6.741
    31   6 C        3.853    -0.007    20.675     6.467
    32   6 C        3.756    -0.118    22.819     6.811
    33   6 C        3.755    -0.119    22.838     6.814
    34   1 H        0.926     0.052     2.299     2.371
    35   1 H        0.924     0.054     2.273     2.358
    36   1 H        0.925     0.082     1.963     2.191
    37   1 H        0.924     0.048     2.350     2.397
    38   1 H        0.924     0.055     2.255     2.349
    39   1 H        0.925     0.081     1.964     2.191
    40   1 H        0.924     0.050     2.318     2.381
    41   1 H        0.926     0.053     2.280     2.361
    42   1 H        0.926     0.039     2.458     2.452
    43   1 H        0.925     0.060     2.197     2.318
    44   1 H        0.925     0.054     2.265     2.354
    45   1 H        0.924     0.069     2.101     2.267
    46   1 H        0.924     0.080     1.984     2.203
    47   1 H        0.922     0.003     3.013     2.715
    48   1 H        0.926     0.069     2.098     2.265
    49   1 H        0.924     0.070     2.080     2.256
    50   1 H        0.924     0.065     2.144     2.290
    51   1 H        0.923     0.069     2.098     2.265
    52   1 H        0.924     0.068     2.106     2.269
    53   1 H        0.925     0.062     2.178     2.308
    54   1 H        0.925     0.048     2.342     2.393
    55   1 H        0.924     0.047     2.352     2.398
    56   1 H        0.924     0.052     2.297     2.370
    57   1 H        0.925     0.085     1.933     2.174
    58   1 H        0.925     0.078     2.004     2.214
    59   1 H        0.924     0.050     2.319     2.381
    60   1 H        0.924     0.052     2.296     2.370
    61   1 H        0.927     0.078     1.995     2.209
    62   1 H        0.925     0.077     2.005     2.214
    63   1 H        0.924     0.073     2.055     2.242
    64   1 H        0.922     0.110     1.698     2.038
    65   1 H        0.924     0.037     2.485     2.465
    66   1 H        0.925     0.067     2.116     2.275
    67   1 H        0.925     0.036     2.509     2.477
    68   1 H        0.925     0.051     2.304     2.373
    69   1 H        0.925     0.063     2.169     2.303
    70   1 H        0.925     0.034     2.526     2.485
    71   1 H        0.925     0.055     2.261     2.352
    72   1 H        0.860     0.155     1.369     1.833

Wiberg/Mayer (AO) data.
largest (>0.10) Wiberg bond orders for each atom

     #   Z sym  total        # sym  WBO       # sym  WBO       # sym  WBO
 ---------------------------------------------------------------------------
     1   7 N    3.034 --     2 C    1.953    72 H    0.943
     2   6 C    3.932 --     1 N    1.953     3 C    0.995    47 H    0.907
     3   6 C    3.976 --     2 C    0.995     4 C    0.969    14 C    0.957
                            31 C    0.943
     4   6 C    3.944 --    13 C    1.411     5 C    1.370     3 C    0.969
     5   6 C    3.961 --     6 C    1.400     4 C    1.370    34 H    0.957
     6   6 C    3.901 --     5 C    1.400     9 C    1.220     7 O    1.100
     7   8 O    2.252 --     6 C    1.100     8 C    0.978
     8   6 C    3.932 --     7 O    0.978    36 H    0.977    37 H    0.973
                            35 H    0.973
     9   6 C    3.897 --    12 C    1.389     6 C    1.220    10 O    1.104
    10   8 O    2.252 --     9 C    1.104    11 C    0.977
    11   6 C    3.930 --    10 O    0.977    39 H    0.977    38 H    0.973
                            40 H    0.973
    12   6 C    3.960 --    13 C    1.410     9 C    1.389    41 H    0.964
    13   6 C    3.951 --     4 C    1.411    12 C    1.410    42 H    0.963
    14   6 C    3.977 --    15 C    0.986    44 H    0.971    43 H    0.968
                             3 C    0.957
    15   6 C    3.988 --    16 C    1.059    14 C    0.986    45 H    0.957
                            46 H    0.927
    16   6 C    3.610 --    17 N    1.422    15 C    1.059    48 H    0.956
    17   7 N    3.503 --    16 C    1.422    30 C    1.000    18 C    0.988
    18   6 C    3.950 --    17 N    0.988    50 H    0.968    19 C    0.966
                            49 H    0.958
    19   6 C    3.951 --    20 C    1.057    18 C    0.966    52 H    0.953
                            51 H    0.926
    20   6 C    3.069 --    21 C    1.789    19 C    1.057
    21   6 C    3.922 --    20 C    1.789    22 C    1.124    53 H    0.934
    22   6 C    3.790 --    23 C    1.546    21 C    1.124    54 H    0.947
    23   6 C    3.827 --    22 C    1.546    24 O    1.114    26 C    1.004
    24   8 O    2.274 --    23 C    1.114    25 C    0.981
    25   6 C    3.934 --    24 O    0.981    57 H    0.973    55 H    0.970
                            56 H    0.969
    26   6 C    3.891 --    29 C    1.760    27 O    1.048    23 C    1.004
    27   8 O    2.178 --    26 C    1.048    28 C    0.981    29 C    0.104
    28   6 C    3.930 --    27 O    0.981    58 H    0.976    59 H    0.973
                            60 H    0.973
    29   6 C    2.919 --    26 C    1.760    61 H    0.952    27 O    0.104
    30   6 C    3.906 --    17 N    1.000    62 H    0.972    63 H    0.960
                            64 H    0.906
    31   6 C    3.972 --    33 C    1.009    32 C    1.008    65 H    0.960
                             3 C    0.943
    32   6 C    3.979 --    31 C    1.008    67 H    0.982    68 H    0.981
                            66 H    0.975
    33   6 C    3.982 --    31 C    1.009    70 H    0.983    71 H    0.980
                            69 H    0.975
    34   1 H    0.996 --     5 C    0.957
    35   1 H    0.993 --     8 C    0.973
    36   1 H    0.993 --     8 C    0.977
    37   1 H    0.993 --     8 C    0.973
    38   1 H    0.992 --    11 C    0.973
    39   1 H    0.993 --    11 C    0.977
    40   1 H    0.993 --    11 C    0.973
    41   1 H    0.995 --    12 C    0.964
    42   1 H    0.998 --    13 C    0.963
    43   1 H    0.995 --    14 C    0.968
    44   1 H    0.996 --    14 C    0.971
    45   1 H    0.992 --    15 C    0.957
    46   1 H    0.970 --    15 C    0.927
    47   1 H    0.987 --     2 C    0.907
    48   1 H    0.995 --    16 C    0.956
    49   1 H    0.987 --    18 C    0.958
    50   1 H    0.994 --    18 C    0.968
    51   1 H    0.949 --    19 C    0.926
    52   1 H    0.981 --    19 C    0.953
    53   1 H    0.967 --    21 C    0.934
    54   1 H    0.994 --    22 C    0.947
    55   1 H    0.993 --    25 C    0.970
    56   1 H    0.993 --    25 C    0.969
    57   1 H    0.992 --    25 C    0.973
    58   1 H    0.992 --    28 C    0.976
    59   1 H    0.991 --    28 C    0.973
    60   1 H    0.991 --    28 C    0.973
    61   1 H    0.972 --    29 C    0.952
    62   1 H    0.989 --    30 C    0.972
    63   1 H    0.984 --    30 C    0.960
    64   1 H    0.985 --    30 C    0.906
    65   1 H    0.992 --    31 C    0.960
    66   1 H    0.991 --    32 C    0.975
    67   1 H    0.997 --    32 C    0.982
    68   1 H    0.994 --    32 C    0.981
    69   1 H    0.993 --    33 C    0.975
    70   1 H    0.997 --    33 C    0.983
    71   1 H    0.994 --    33 C    0.980
    72   1 H    0.971 --     1 N    0.943
 ---------------------------------------------------------------------------

molecular dipole:
                 x           y           z       tot (Debye)
 q only:        0.503       0.614      -1.029
   full:        1.028       0.636      -1.059       4.085

           -------------------------------------------------
          | TOTAL ENERGY              -99.173186186656 Eh   |
          | GRADIENT NORM               0.003836211415 Eh/α |
          | HOMO-LUMO GAP               0.083956989811 eV   |
           -------------------------------------------------

 * finished run on 2024/04/06 at 11:14:03.201
