   * xtb version 6.6.1 (8d0f1dd) compiled by 'conda@1efc2f54142f' on 2023-08-01
          program call               : xtb xtbopt.xyz --opt crude --input .xc2 --gfn2

   ID    Z sym.   atoms
    1    7 N      1, 17
    2    6 C      2-6, 8, 9, 11-16, 18-23, 25, 26, 28-33
    3    8 O      7, 10, 24, 27
    4    1 H      34-72
########################################################################
[WARNING] Please study the warnings concerning your input carefully
-1- readin_getIntValue: could not parse ''
########################################################################

          :  Hamiltonian                  GFN2-xTB          :
 * total energy  :   -99.1770551 Eh     change       -0.1757741E-09 Eh
 * total energy  :   -99.1821415 Eh     change       -0.5086366E-02 Eh
 * total energy  :   -99.1858315 Eh     change       -0.3689967E-02 Eh
 * total energy  :   -99.1879035 Eh     change       -0.2072085E-02 Eh
 * total energy  :   -99.1899553 Eh     change       -0.2051703E-02 Eh
 * total energy  :   -99.1921254 Eh     change       -0.2170109E-02 Eh
 * total energy  :   -99.1950251 Eh     change       -0.2899751E-02 Eh
 * total energy  :   -99.1986793 Eh     change       -0.3654225E-02 Eh
 * total energy  :   -99.2041128 Eh     change       -0.5433491E-02 Eh
 * total energy  :   -99.2098258 Eh     change       -0.5713001E-02 Eh
 * total energy  :   -99.2970560 Eh     change       -0.1792798E-02 Eh
 * total energy  :   -99.2984754 Eh     change       -0.1419393E-02 Eh
 * total energy  :   -99.2993441 Eh     change       -0.8686920E-03 Eh
 * total energy  :   -99.2998670 Eh     change       -0.5229071E-03 Eh
 * total energy  :   -99.3007749 Eh     change       -0.9079270E-03 Eh
 * total energy  :   -99.3013639 Eh     change       -0.5889029E-03 Eh
 * total energy  :   -99.3018955 Eh     change       -0.5316209E-03 Eh
 * total energy  :   -99.3022810 Eh     change       -0.3855049E-03 Eh
 * total energy  :   -99.3024948 Eh     change       -0.2138505E-03 Eh
   *** GEOMETRY OPTIMIZATION CONVERGED AFTER 35 ITERATIONS ***

 final structure:
================
72
 xtb: 6.6.1 (8d0f1dd)
N           -1.97547979328713        3.15553148352776        1.89212217093476
C           -2.01929393345370        2.43222834113340        0.87514238619299
C           -3.26956422552843        2.09360638547011        0.11197044146377
C           -3.55478370943768        0.60495049401250        0.24001029742384
C           -4.52561951116826        0.01136815621577       -0.56927387414951
C           -4.85498697962050       -1.32738700713775       -0.44007262268383
O           -5.78340959638538       -1.97677672791298       -1.17295612252836
C           -6.55815060496293       -1.25607194730494       -2.10176649689854
C           -4.19117249110157       -2.12092891788963        0.53403298607000
O           -4.58410708002650       -3.40931441251134        0.59751412040452
C           -4.04246364638262       -4.24159430155559        1.59615461135275
C           -3.22365639017704       -1.52765677590825        1.32863444840302
C           -2.91102394836590       -0.18196852617636        1.18221902247345
C           -2.98136248201686        2.46440887919967       -1.36614077543951
C           -2.01841330214495        1.50536363148793       -2.09162855697155
C           -0.61761292384100        1.64179820915963       -1.63554478670792
N            0.20630266367231        0.63484463439483       -1.36113237374261
C            1.55657733953112        0.88671341637525       -0.91108782837941
C            2.61716605840601        0.39947975690633       -1.91504178386271
C            3.92978789804645        0.49433274449669       -1.31185710588281
C            4.98415546279631        0.46358720553585       -0.71723837154407
C            6.20825510018902        0.66359414768076       -0.07701704536775
C            7.04328446471116       -0.27929802836344        0.43751711119597
O            8.18005692370997        0.02173012125078        1.09023188252787
C            8.50935834485438        1.36501907341860        1.35738606063800
C            6.84880185910708       -1.74247033974263        0.37049417340146
O            7.81798844892288       -2.38173515931850        1.05714059980824
C            7.83199698409923       -3.78834028292467        1.06253185428373
C            5.84497537491605       -2.33672340620325       -0.29147986780366
C           -0.24220869832145       -0.73908299457586       -1.35747980584996
C           -4.52493478442740        2.86555148195974        0.61788571432409
C           -4.88303145222623        2.47152434999846        2.04906846367994
C           -4.37519306818806        4.38135457392859        0.52354150339775
H           -5.04561428136701        0.61103445636138       -1.29771194561700
H           -7.12589716189520       -0.45642297782411       -1.61625955299799
H           -7.24991041397700       -1.98005402223023       -2.52802027733358
H           -5.94042221981883       -0.83445600420910       -2.90160596372464
H           -4.25545774604210       -3.85582759019356        2.59771251695957
H           -4.53127880034631       -5.20558695575968        1.46953303627278
H           -2.96167274232787       -4.36527129079949        1.47430135169312
H           -2.71409090179387       -2.10102814715851        2.08592009640048
H           -2.17690249161028        0.25276054985111        1.84304916595637
H           -3.92305328021521        2.47637858755240       -1.91364058026046
H           -2.56914291175340        3.47355026725151       -1.40067167124887
H           -2.37666112064869        0.48250604232786       -1.99177392383541
H           -2.05170530452692        1.77161085816069       -3.15583866649605
H           -1.12292209414631        1.99552667358359        0.39456208903811
H           -0.18459193783987        2.63165641846383       -1.64861094994199
H            1.71196790209272        0.37391947296472        0.04554918604973
H            1.69030743084585        1.95857940971015       -0.74729009085292
H            2.57932116698140        1.00146555532239       -2.82745069652697
H            2.42998959941816       -0.64362794319836       -2.18192369134270
H            5.12548663502414       -1.75421694237611       -0.82575832819127
H            6.47980930485897        1.70673096855138        0.00373552574214
H            7.69791996057331        1.88174750633130        1.87913823878682
H            8.76057637905089        1.90646371624596        0.44211268710216
H            9.38506602449780        1.32663778514542        2.00194378418708
H            8.71050157579169       -4.07340492184624        1.63830256030027
H            6.93517668502573       -4.19413950570225        1.54157185975936
H            7.91460538014474       -4.18940249158555        0.04786483073096
H            5.73716419273659       -3.40446548586618       -0.31861390942617
H           -0.56258242010309       -1.04557609573142       -2.35463847270110
H           -1.07733628264187       -0.87285516970637       -0.66243505516249
H            0.57378383962227       -1.38400469990924       -1.04110717983900
H           -5.35514019928973        2.56444159030751       -0.03136565291115
H           -4.08782228100698        2.76629542644046        2.72608176195193
H           -5.04142964674540        1.39929238755784        2.13461010597966
H           -5.79735217912071        2.97694138818493        2.34791473033961
H           -3.53208430125069        4.71465435187191        1.12062986410497
H           -4.24364370366258        4.71413545980499       -0.50253083750067
H           -5.27363117647032        4.85245404160102        0.91312933333219
H           -1.06705318292341        3.33805859441275        2.30696913370929

          :  Hamiltonian                  GFN2-xTB          :
         :: total energy             -99.302494838484 Eh    ::
         :: gradient norm              0.008035244954 Eh/a0 ::
         :: HOMO-LUMO gap              1.618155023294 eV    ::
         :: SCC energy              -100.733421884031 Eh    ::
         :: -> dispersion             -0.072629243133 Eh    ::
         :: repulsion energy           1.429663766548 Eh    ::

    * Orbital Energies and Occupations

         #    Occupation            Energy/Eh            Energy/eV
      -------------------------------------------------------------
         1        2.0000           -0.8070112             -21.9599
       ...           ...                  ...                  ...
        78        1.9984           -0.5275818             -14.3562
        79        1.9984           -0.5270639             -14.3421
        80        1.9983           -0.5265093             -14.3270
        81        1.9976           -0.5207095             -14.1692
        82        1.9962           -0.5135118             -13.9734
        83        1.9956           -0.5110311             -13.9059
        84        1.9946           -0.5079620             -13.8224
        85        1.9844           -0.4910945             -13.3634
        86        1.9819           -0.4886497             -13.2968
        87        1.9568           -0.4746883             -12.9169
        88        1.9426           -0.4700845             -12.7917
        89        1.8776           -0.4575484             -12.4505
        90        1.8328           -0.4522336             -12.3059 (HOMO)
        91        0.4081           -0.3927675             -10.6877 (LUMO)
        92        0.0226           -0.3435243              -9.3478
        93        0.0158           -0.3377906              -9.1918
        94        0.0037           -0.3146115              -8.5610
        95        0.0030           -0.3115943              -8.4789
        96        0.0001           -0.2546367              -6.9290
        97        0.0001           -0.2511995              -6.8355
        98        0.0000           -0.1889669              -5.1421
        99        0.0000           -0.1866348              -5.0786
       100                         -0.1357863              -3.6949
       101                         -0.0705175              -1.9189
       ...                                ...                  ...
       171                          1.2793318              34.8124
      -------------------------------------------------------------
                  HL-Gap            0.0594661 Eh            1.6182 eV

     #   Z          covCN         q      C6AA      α(0)
     1   7 N        1.773    -0.270    27.830     7.812
     2   6 C        2.827     0.101    25.756     8.316
     3   6 C        3.907     0.006    20.412     6.422
     4   6 C        2.974     0.001    27.995     8.679
     5   6 C        2.920    -0.080    30.009     8.983
     6   6 C        2.862     0.129    25.168     8.223
     7   8 O        1.706    -0.231    17.828     5.701
     8   6 C        3.644     0.028    20.441     6.499
     9   6 C        2.864     0.128    25.186     8.226
    10   8 O        1.706    -0.230    17.806     5.697
    11   6 C        3.645     0.027    20.447     6.499
    12   6 C        2.914    -0.074    29.858     8.960
    13   6 C        2.921    -0.053    29.325     8.880
    14   6 C        3.812    -0.064    21.723     6.634
    15   6 C        3.802    -0.069    21.816     6.650
    16   6 C        2.842     0.007    27.850     8.649
    17   7 N        2.728     0.005    21.169     6.833
    18   6 C        3.760    -0.012    20.841     6.508
    19   6 C        3.803    -0.045    21.385     6.584
    20   6 C        1.971    -0.055    32.550     9.214
    21   6 C        1.967    -0.028    31.800     9.107
    22   6 C        2.890    -0.062    29.550     8.912
    23   6 C        2.845     0.145    24.840     8.168
    24   8 O        1.707    -0.215    17.576     5.660
    25   6 C        3.643     0.025    20.501     6.509
    26   6 C        2.841     0.143    24.877     8.174
    27   8 O        1.707    -0.228    17.782     5.693
    28   6 C        3.646     0.027    20.455     6.499
    29   6 C        2.839    -0.141    31.621     9.215
    30   6 C        3.699    -0.068    21.978     6.705
    31   6 C        3.853    -0.007    20.670     6.466
    32   6 C        3.756    -0.119    22.826     6.812
    33   6 C        3.755    -0.119    22.831     6.813
    34   1 H        0.926     0.051     2.304     2.374
    35   1 H        0.924     0.053     2.279     2.361
    36   1 H        0.925     0.081     1.972     2.196
    37   1 H        0.924     0.047     2.364     2.404
    38   1 H        0.924     0.054     2.265     2.353
    39   1 H        0.925     0.081     1.974     2.197
    40   1 H        0.924     0.048     2.349     2.397
    41   1 H        0.926     0.051     2.303     2.373
    42   1 H        0.926     0.038     2.480     2.463
    43   1 H        0.925     0.060     2.194     2.316
    44   1 H        0.924     0.054     2.274     2.358
    45   1 H        0.925     0.066     2.132     2.283
    46   1 H        0.924     0.079     1.992     2.207
    47   1 H        0.922     0.005     2.980     2.700
    48   1 H        0.926     0.068     2.102     2.267
    49   1 H        0.924     0.068     2.107     2.270
    50   1 H        0.924     0.067     2.114     2.274
    51   1 H        0.924     0.069     2.093     2.262
    52   1 H        0.924     0.065     2.143     2.289
    53   1 H        0.927     0.059     2.212     2.326
    54   1 H        0.926     0.069     2.098     2.265
    55   1 H        0.924     0.052     2.290     2.367
    56   1 H        0.924     0.057     2.240     2.340
    57   1 H        0.925     0.083     1.951     2.184
    58   1 H        0.925     0.079     1.993     2.208
    59   1 H        0.924     0.051     2.309     2.376
    60   1 H        0.924     0.054     2.277     2.360
    61   1 H        0.926     0.061     2.183     2.311
    62   1 H        0.924     0.076     2.017     2.221
    63   1 H        0.924     0.076     2.018     2.222
    64   1 H        0.925     0.081     1.973     2.197
    65   1 H        0.924     0.037     2.493     2.469
    66   1 H        0.925     0.068     2.107     2.270
    67   1 H        0.925     0.035     2.516     2.481
    68   1 H        0.925     0.051     2.309     2.376
    69   1 H        0.925     0.061     2.188     2.313
    70   1 H        0.925     0.035     2.523     2.484
    71   1 H        0.925     0.054     2.267     2.354
    72   1 H        0.860     0.156     1.364     1.829

Wiberg/Mayer (AO) data.
largest (>0.10) Wiberg bond orders for each atom

     #   Z sym  total        # sym  WBO       # sym  WBO       # sym  WBO
 ---------------------------------------------------------------------------
     1   7 N    3.040 --     2 C    1.954    72 H    0.942
     2   6 C    3.927 --     1 N    1.954     3 C    0.995    47 H    0.899
     3   6 C    3.977 --     2 C    0.995     4 C    0.970    14 C    0.958
                            31 C    0.941
     4   6 C    3.950 --    13 C    1.415     5 C    1.368     3 C    0.970
     5   6 C    3.963 --     6 C    1.402     4 C    1.368    34 H    0.958
     6   6 C    3.906 --     5 C    1.402     9 C    1.223     7 O    1.098
     7   8 O    2.254 --     6 C    1.098     8 C    0.978
     8   6 C    3.933 --     7 O    0.978    36 H    0.977    37 H    0.974
                            35 H    0.974
     9   6 C    3.903 --    12 C    1.393     6 C    1.223    10 O    1.100
    10   8 O    2.252 --     9 C    1.100    11 C    0.978
    11   6 C    3.932 --    10 O    0.978    39 H    0.977    40 H    0.974
                            38 H    0.974
    12   6 C    3.963 --    13 C    1.403     9 C    1.393    41 H    0.964
    13   6 C    3.956 --     4 C    1.415    12 C    1.403    42 H    0.963
    14   6 C    3.971 --    15 C    0.979    44 H    0.972    43 H    0.968
                             3 C    0.958
    15   6 C    3.987 --    16 C    1.060    14 C    0.979    45 H    0.962
                            46 H    0.930
    16   6 C    3.583 --    17 N    1.392    15 C    1.060    48 H    0.957
    17   7 N    3.468 --    16 C    1.392    30 C    0.997    18 C    0.988
    18   6 C    3.951 --    17 N    0.988    50 H    0.969    19 C    0.965
                            49 H    0.960
    19   6 C    3.980 --    20 C    1.056    18 C    0.965    51 H    0.955
                            52 H    0.951
    20   6 C    3.898 --    21 C    2.639    19 C    1.056
    21   6 C    3.954 --    20 C    2.639    22 C    1.187
    22   6 C    3.886 --    23 C    1.555    21 C    1.187    54 H    0.934
    23   6 C    3.885 --    22 C    1.555    24 O    1.122    26 C    1.040
    24   8 O    2.286 --    23 C    1.122    25 C    0.977
    25   6 C    3.930 --    24 O    0.977    57 H    0.976    55 H    0.972
                            56 H    0.971
    26   6 C    3.915 --    29 C    1.702    27 O    1.097    23 C    1.040
    27   8 O    2.257 --    26 C    1.097    28 C    0.979    29 C    0.119
    28   6 C    3.932 --    27 O    0.979    58 H    0.977    60 H    0.972
                            59 H    0.972
    29   6 C    3.874 --    26 C    1.702    61 H    0.970    53 H    0.963
                            27 O    0.119
    30   6 C    3.958 --    17 N    0.997    64 H    0.977    62 H    0.969
                            63 H    0.961
    31   6 C    3.973 --    33 C    1.009    32 C    1.008    65 H    0.961
                             3 C    0.941
    32   6 C    3.980 --    31 C    1.008    67 H    0.982    68 H    0.982
                            66 H    0.974
    33   6 C    3.983 --    31 C    1.009    70 H    0.983    71 H    0.980
                            69 H    0.976
    34   1 H    0.996 --     5 C    0.958
    35   1 H    0.994 --     8 C    0.974
    36   1 H    0.993 --     8 C    0.977
    37   1 H    0.994 --     8 C    0.974
    38   1 H    0.993 --    11 C    0.974
    39   1 H    0.993 --    11 C    0.977
    40   1 H    0.994 --    11 C    0.974
    41   1 H    0.996 --    12 C    0.964
    42   1 H    0.998 --    13 C    0.963
    43   1 H    0.995 --    14 C    0.968
    44   1 H    0.996 --    14 C    0.972
    45   1 H    0.995 --    15 C    0.962
    46   1 H    0.971 --    15 C    0.930
    47   1 H    0.988 --     2 C    0.899
    48   1 H    0.995 --    16 C    0.957
    49   1 H    0.988 --    18 C    0.960
    50   1 H    0.995 --    18 C    0.969
    51   1 H    0.989 --    19 C    0.955
    52   1 H    0.994 --    19 C    0.951
    53   1 H    0.996 --    29 C    0.963
    54   1 H    0.993 --    22 C    0.934
    55   1 H    0.994 --    25 C    0.972
    56   1 H    0.991 --    25 C    0.971
    57   1 H    0.992 --    25 C    0.976
    58   1 H    0.993 --    28 C    0.977
    59   1 H    0.993 --    28 C    0.972
    60   1 H    0.993 --    28 C    0.972
    61   1 H    0.995 --    29 C    0.970
    62   1 H    0.987 --    30 C    0.969
    63   1 H    0.986 --    30 C    0.961
    64   1 H    0.993 --    30 C    0.977
    65   1 H    0.993 --    31 C    0.961
    66   1 H    0.991 --    32 C    0.974
    67   1 H    0.997 --    32 C    0.982
    68   1 H    0.994 --    32 C    0.982
    69   1 H    0.993 --    33 C    0.976
    70   1 H    0.997 --    33 C    0.983
    71   1 H    0.994 --    33 C    0.980
    72   1 H    0.971 --     1 N    0.942
 ---------------------------------------------------------------------------

molecular dipole:
                 x           y           z       tot (Debye)
 q only:        0.818       0.231      -1.078
   full:        1.084       0.221      -1.290       4.320

           -------------------------------------------------
          | TOTAL ENERGY              -99.302494838484 Eh   |
          | GRADIENT NORM               0.008035244954 Eh/α |
          | HOMO-LUMO GAP               1.618155023294 eV   |
           -------------------------------------------------

 * finished run on 2024/04/06 at 11:14:09.311
