   * xtb version 6.6.1 (8d0f1dd) compiled by 'conda@1efc2f54142f' on 2023-08-01
          program call               : xtb xtbopt.xyz --opt crude --input .xc2 --gfn2

   ID    Z sym.   atoms
    1    7 N      1, 17
    2    6 C      2-6, 8, 9, 11-16, 18-23, 25, 26, 28-33
    3    8 O      7, 10, 24, 27
    4    1 H      34-72

          :  Hamiltonian                  GFN2-xTB          :
 * total energy  :   -99.2699062 Eh     change       -0.9869439E-10 Eh
   *** GEOMETRY OPTIMIZATION CONVERGED AFTER 1 ITERATIONS ***

 final structure:
================
72
 xtb: 6.6.1 (8d0f1dd)
N           -1.90510896529784        2.97139293273060        2.21031524996785
C           -1.83094341917811        2.24319388812700        1.19822967881369
C           -2.96787617699335        1.98962044185291        0.24465960566431
C           -3.40439584569932        0.53703069172632        0.34934747015035
C           -4.30863574860863        0.01802553939529       -0.57920308369961
C           -4.76747817473659       -1.28664115250210       -0.49486879224985
O           -5.66010811410325       -1.85828260369286       -1.32383491548292
C           -6.26029945229325       -1.07857553415551       -2.33400872391394
C           -4.29086810298418       -2.11630246003215        0.55510761497876
O           -4.75683789940735       -3.39199238282852        0.55041458064574
C           -4.68242032352182       -4.21747559969197        1.55803093201578
C           -3.38855159607790       -1.59796518861486        1.47982577684263
C           -2.95476542423857       -0.28811907490460        1.37401222415935
C           -2.41103579313355        2.28872804685576       -1.17214753879119
C           -1.46374462734955        1.21395861291302       -1.73696806989248
C           -0.13644359957971        1.17971128018164       -1.08263491962592
N            0.50460409557457        0.07995438523531       -0.69945160309345
C            1.88437294953236        0.14336368923517       -0.27844353809597
C            2.84699270726264       -0.31545796995712       -1.39137992595954
C            4.26990080547572       -0.12919872372492       -0.94364353257301
C            4.92044952252952        1.07633840007191       -1.15092203239687
C            6.22245543466887        1.26525052348715       -0.71446552056063
C            6.90057671461553        0.25000041918572       -0.05526477801089
O            8.16119104937017        0.32098621964552        0.41013831027519
C            8.89911082913883        1.50626560756258        0.21945218416739
C            6.24050052389039       -0.99090931535619        0.16426031835944
O            6.97254790070158       -1.92225235551952        0.80697264535455
C            6.41841332211562       -3.19435477595897        1.04331947011426
C            4.93771287299677       -1.15548460701491       -0.27964907327255
C           -0.10197490937569       -1.22730976196978       -0.77787631794468
C           -4.21584652370927        2.88379543176806        0.51855674346211
C           -4.85753244556434        2.55522816021907        1.86469323646443
C           -3.91207410532574        4.37750608431973        0.44587006809049
H           -4.67368748741344        0.64942560610990       -1.37109739648134
H           -6.80164557120876       -0.22892363648852       -1.91073030672487
H           -6.96170651157648       -1.74349978454746       -2.83306681471155
H           -5.52121458672929       -0.72352261842991       -3.05675449737353
H           -4.34020485151301       -3.91620792021697        2.53621640964505
H           -5.36471144358219       -7.07111492264568        1.32942942624159
H           -5.03028686320311       -5.23257469482167        1.37341618299992
H           -3.01030518417305       -2.21962112815871        2.27556862690305
H           -2.27283811203302        0.09359544399415        2.11736719913725
H           -3.24734141238358        2.39471986379042       -1.86269283107872
H           -1.88643101084549        3.24459069620984       -1.14480074465843
H           -1.95166874289459        0.24182240086418       -1.70533640430512
H           -1.29905308733804        1.47050404746234       -2.79168260333359
H           -0.90369963097371        1.73687850529245        0.86728792779402
H            0.42150154122538        2.10312648444121       -1.03684031233652
H            2.01973932722816       -0.49002809288388        0.60251602543270
H            2.13069317657497        1.17029809488352       -0.00157847319689
H            2.65806978196734        0.28126775963664       -2.28543877041572
H            2.66106843381178       -1.36337137831569       -1.62926136749390
H            4.41843991711684        1.87915250619161       -1.66930150448189
H            6.70458349813810        2.21130824725730       -0.89792038731814
H            8.42797757985353        2.35668260158004        0.72171467897635
H            9.02509791542913        1.73286676904313       -0.84346216863531
H            9.87346781740308        1.31837615525310        0.66624879469900
H            7.19680769432868       -3.76242819869095        1.54896372115044
H            5.53733101363165       -3.13472721829746        1.69038111470626
H            6.15365468546655       -3.69706191533913        0.10795143043116
H            4.43152811438426       -2.09546978551951       -0.12447076572006
H           -0.25018891322674       -1.53398060179497       -1.81572315421063
H           -1.06809406214623       -1.23078788120332       -0.26810259034970
H            0.54628418089020       -1.95231985385652       -0.29267121933942
H           -4.94299776911982        2.64858209578816       -0.26722765583452
H           -4.17008157243944        2.78850337053556        2.67112295369335
H           -5.13258656434059        1.50513440734116        1.92661456219475
H           -5.75691895728373        3.15134296812327        1.99278453515368
H           -3.17564363002714        4.64928335038721        1.19530255884749
H           -3.55271978943234        4.67283589706262       -0.53618496350022
H           -4.82299035457121        4.93491399691143        0.64760157751601
H           -1.06460045268660        3.09453903697073        2.76667830460509

          :  Hamiltonian                  GFN2-xTB          :
         :: total energy             -99.269906216301 Eh    ::
         :: gradient norm              0.004014679716 Eh/a0 ::
         :: HOMO-LUMO gap              0.415561768152 eV    ::
         :: SCC energy              -100.642403046782 Eh    ::
         :: -> dispersion             -0.075053993385 Eh    ::
         :: repulsion energy           1.371271403026 Eh    ::

    * Orbital Energies and Occupations

         #    Occupation            Energy/Eh            Energy/eV
      -------------------------------------------------------------
         1        2.0000           -0.8488518             -23.0984
       ...           ...                  ...                  ...
        78        1.9986           -0.5327475             -14.4968
        79        1.9985           -0.5311614             -14.4536
        80        1.9983           -0.5291454             -14.3988
        81        1.9977           -0.5243957             -14.2695
        82        1.9971           -0.5204799             -14.1630
        83        1.9962           -0.5165516             -14.0561
        84        1.9959           -0.5151495             -14.0179
        85        1.9936           -0.5081451             -13.8273
        86        1.9787           -0.4889264             -13.3044
        87        1.9786           -0.4888735             -13.3029
        88        1.9469           -0.4742132             -12.9040
        89        1.8442           -0.4563019             -12.4166
        90        1.1491           -0.4219283             -11.4813 (HOMO)
        91        0.6796           -0.4066567             -11.0657 (LUMO)
        92        0.4178           -0.3960872             -10.7781
        93        0.0173           -0.3420980              -9.3090
        94        0.0078           -0.3294446              -8.9646
        95        0.0057           -0.3243704              -8.8266
        96        0.0028           -0.3128697              -8.5136
        97        0.0024           -0.3105595              -8.4508
        98        0.0000           -0.2052659              -5.5856
        99        0.0000           -0.1880522              -5.1172
       100                         -0.1377229              -3.7476
       101                         -0.0758609              -2.0643
       ...                                ...                  ...
       171                          0.5758628              15.6700
      -------------------------------------------------------------
                  HL-Gap            0.0152716 Eh            0.4156 eV

     #   Z          covCN         q      C6AA      α(0)
     1   7 N        1.774    -0.270    27.829     7.812
     2   6 C        2.826     0.100    25.782     8.320
     3   6 C        3.907     0.006    20.420     6.423
     4   6 C        2.974     0.009    27.806     8.650
     5   6 C        2.920    -0.080    29.994     8.981
     6   6 C        2.860     0.136    25.023     8.199
     7   8 O        1.706    -0.231    17.837     5.702
     8   6 C        3.645     0.025    20.485     6.505
     9   6 C        2.871     0.100    25.783     8.324
    10   8 O        1.710    -0.101    15.846     5.375
    11   6 C        2.732     0.034    27.207     8.540
    12   6 C        2.911    -0.062    29.550     8.914
    13   6 C        2.921    -0.052    29.287     8.875
    14   6 C        3.811    -0.065    21.741     6.637
    15   6 C        3.802    -0.069    21.816     6.650
    16   6 C        2.842     0.004    27.933     8.662
    17   7 N        2.729     0.009    21.096     6.822
    18   6 C        3.756    -0.016    20.922     6.522
    19   6 C        3.808    -0.071    21.843     6.653
    20   6 C        2.969    -0.000    28.036     8.685
    21   6 C        2.922    -0.049    29.215     8.864
    22   6 C        2.914    -0.068    29.682     8.934
    23   6 C        2.865     0.134    25.078     8.209
    24   8 O        1.706    -0.222    17.677     5.677
    25   6 C        3.645     0.025    20.490     6.506
    26   6 C        2.863     0.133    25.086     8.210
    27   8 O        1.706    -0.224    17.722     5.684
    28   6 C        3.645     0.027    20.455     6.501
    29   6 C        2.919    -0.080    29.987     8.980
    30   6 C        3.699    -0.069    21.999     6.708
    31   6 C        3.853    -0.007    20.670     6.466
    32   6 C        3.756    -0.119    22.834     6.813
    33   6 C        3.755    -0.119    22.842     6.815
    34   1 H        0.926     0.058     2.224     2.332
    35   1 H        0.924     0.056     2.242     2.342
    36   1 H        0.925     0.084     1.934     2.175
    37   1 H        0.924     0.050     2.318     2.381
    38   1 H        0.926     0.069     2.099     2.265
    39   1 H        0.000    -0.141    18.007     7.759
    40   1 H        0.925     0.117     1.637     2.001
    41   1 H        0.926     0.057     2.234     2.338
    42   1 H        0.926     0.046     2.364     2.405
    43   1 H        0.925     0.060     2.201     2.320
    44   1 H        0.924     0.056     2.252     2.347
    45   1 H        0.925     0.063     2.163     2.300
    46   1 H        0.924     0.079     1.985     2.203
    47   1 H        0.922     0.005     2.975     2.697
    48   1 H        0.926     0.069     2.098     2.265
    49   1 H        0.924     0.067     2.119     2.277
    50   1 H        0.924     0.068     2.112     2.273
    51   1 H        0.924     0.055     2.257     2.349
    52   1 H        0.924     0.055     2.253     2.347
    53   1 H        0.926     0.045     2.384     2.415
    54   1 H        0.926     0.059     2.216     2.328
    55   1 H        0.924     0.054     2.268     2.355
    56   1 H        0.924     0.056     2.246     2.344
    57   1 H        0.925     0.083     1.953     2.185
    58   1 H        0.925     0.082     1.957     2.188
    59   1 H        0.924     0.049     2.337     2.391
    60   1 H        0.924     0.053     2.287     2.365
    61   1 H        0.926     0.047     2.356     2.400
    62   1 H        0.924     0.076     2.022     2.224
    63   1 H        0.924     0.076     2.026     2.226
    64   1 H        0.925     0.080     1.976     2.198
    65   1 H        0.924     0.036     2.505     2.475
    66   1 H        0.925     0.069     2.094     2.263
    67   1 H        0.925     0.032     2.552     2.498
    68   1 H        0.925     0.052     2.294     2.369
    69   1 H        0.925     0.062     2.171     2.304
    70   1 H        0.925     0.035     2.514     2.480
    71   1 H        0.925     0.055     2.258     2.350
    72   1 H        0.860     0.157     1.354     1.823

Wiberg/Mayer (AO) data.
largest (>0.10) Wiberg bond orders for each atom

     #   Z sym  total        # sym  WBO       # sym  WBO       # sym  WBO
 ---------------------------------------------------------------------------
     1   7 N    3.037 --     2 C    1.957    72 H    0.942
     2   6 C    3.929 --     1 N    1.957     3 C    0.993    47 H    0.904
     3   6 C    3.978 --     2 C    0.993     4 C    0.974    14 C    0.957
                            31 C    0.940
     4   6 C    3.918 --    13 C    1.394     5 C    1.374     3 C    0.974
     5   6 C    3.961 --     6 C    1.393     4 C    1.374    34 H    0.957
     6   6 C    3.896 --     5 C    1.393     9 C    1.228     7 O    1.110
     7   8 O    2.272 --     6 C    1.110     8 C    0.973
     8   6 C    3.929 --    36 H    0.976    37 H    0.975    35 H    0.975
                             7 O    0.973
     9   6 C    3.888 --    12 C    1.360     6 C    1.228    10 O    1.047
    10   8 O    2.423 --    11 C    1.280     9 C    1.047
    11   6 C    3.290 --    10 O    1.280    38 H    0.964    40 H    0.921
    12   6 C    3.915 --    13 C    1.434     9 C    1.360    41 H    0.962
    13   6 C    3.973 --    12 C    1.434     4 C    1.394    42 H    0.962
    14   6 C    3.971 --    15 C    0.981    44 H    0.972    43 H    0.969
                             3 C    0.957
    15   6 C    3.987 --    16 C    1.059    14 C    0.981    45 H    0.962
                            46 H    0.928
    16   6 C    3.576 --    17 N    1.394    15 C    1.059    48 H    0.958
    17   7 N    3.469 --    16 C    1.394    30 C    0.999    18 C    0.989
    18   6 C    3.955 --    17 N    0.989    50 H    0.968    19 C    0.966
                            49 H    0.964
    19   6 C    3.976 --    20 C    1.008    52 H    0.972    51 H    0.972
                            18 C    0.966
    20   6 C    3.944 --    21 C    1.409    29 C    1.380    19 C    1.008
    21   6 C    3.950 --    22 C    1.417    20 C    1.409    53 H    0.968
    22   6 C    3.959 --    21 C    1.417    23 C    1.383    54 H    0.963
    23   6 C    3.895 --    22 C    1.383    26 C    1.219    24 O    1.111
    24   8 O    2.255 --    23 C    1.111    25 C    0.976
    25   6 C    3.928 --    57 H    0.977    24 O    0.976    55 H    0.973
                            56 H    0.973
    26   6 C    3.899 --    29 C    1.395    23 C    1.219    27 O    1.104
    27   8 O    2.255 --    26 C    1.104    28 C    0.978
    28   6 C    3.932 --    27 O    0.978    58 H    0.977    59 H    0.973
                            60 H    0.973
    29   6 C    3.959 --    26 C    1.395    20 C    1.380    61 H    0.963
    30   6 C    3.959 --    17 N    0.999    64 H    0.977    62 H    0.966
                            63 H    0.963
    31   6 C    3.974 --    33 C    1.009    32 C    1.009    65 H    0.961
                             3 C    0.940
    32   6 C    3.981 --    31 C    1.009    67 H    0.982    68 H    0.982
                            66 H    0.975
    33   6 C    3.984 --    31 C    1.009    70 H    0.983    71 H    0.980
                            69 H    0.977
    34   1 H    0.996 --     5 C    0.957
    35   1 H    0.994 --     8 C    0.975
    36   1 H    0.992 --     8 C    0.976
    37   1 H    0.995 --     8 C    0.975
    38   1 H    0.993 --    11 C    0.964
    39   1 H    0.045
    40   1 H    0.985 --    11 C    0.921
    41   1 H    0.995 --    12 C    0.962
    42   1 H    0.997 --    13 C    0.962
    43   1 H    0.995 --    14 C    0.969
    44   1 H    0.996 --    14 C    0.972
    45   1 H    0.995 --    15 C    0.962
    46   1 H    0.970 --    15 C    0.928
    47   1 H    0.989 --     2 C    0.904
    48   1 H    0.995 --    16 C    0.958
    49   1 H    0.990 --    18 C    0.964
    50   1 H    0.994 --    18 C    0.968
    51   1 H    0.996 --    19 C    0.972
    52   1 H    0.996 --    19 C    0.972
    53   1 H    0.997 --    21 C    0.968
    54   1 H    0.995 --    22 C    0.963
    55   1 H    0.992 --    25 C    0.973
    56   1 H    0.991 --    25 C    0.973
    57   1 H    0.992 --    25 C    0.977
    58   1 H    0.993 --    28 C    0.977
    59   1 H    0.993 --    28 C    0.973
    60   1 H    0.993 --    28 C    0.973
    61   1 H    0.997 --    29 C    0.963
    62   1 H    0.984 --    30 C    0.966
    63   1 H    0.988 --    30 C    0.963
    64   1 H    0.993 --    30 C    0.977
    65   1 H    0.994 --    31 C    0.961
    66   1 H    0.992 --    32 C    0.975
    67   1 H    0.997 --    32 C    0.982
    68   1 H    0.995 --    32 C    0.982
    69   1 H    0.993 --    33 C    0.977
    70   1 H    0.997 --    33 C    0.983
    71   1 H    0.994 --    33 C    0.980
    72   1 H    0.971 --     1 N    0.942
 ---------------------------------------------------------------------------

molecular dipole:
                 x           y           z       tot (Debye)
 q only:        0.713       0.994      -0.994
   full:        0.959       0.908      -1.163       4.473

           -------------------------------------------------
          | TOTAL ENERGY              -99.269906216301 Eh   |
          | GRADIENT NORM               0.004014679716 Eh/α |
          | HOMO-LUMO GAP               0.415561768152 eV   |
           -------------------------------------------------

 * finished run on 2024/04/06 at 11:12:54.313
