   * xtb version 6.6.1 (8d0f1dd) compiled by 'conda@1efc2f54142f' on 2023-08-01
          program call               : xtb struc.xyz --opt loose --input .xc1 --gfn2

   ID    Z sym.   atoms
    1    6 C      1, 3, 5-7, 10, 11, 14
    2    7 N      2, 4, 9, 13
    3    8 O      8, 12
    4    1 H      15-25
constraining bond 10 13 to    5.9200000 Å, actual value:    3.6911810 Å

          :  Hamiltonian                  GFN2-xTB          :
 * total energy  :   -33.3779884 Eh     change       -0.6650680E-10 Eh
 * total energy  :   -37.1225519 Eh     change       -0.3744564E+01 Eh
 * total energy  :   -39.7462821 Eh     change       -0.2623730E+01 Eh
 * total energy  :   -41.2289459 Eh     change       -0.1482664E+01 Eh
 * total energy  :   -41.7453085 Eh     change       -0.5163626E+00 Eh
 * total energy  :   -41.8281556 Eh     change       -0.8284711E-01 Eh
 * total energy  :   -41.8778580 Eh     change       -0.4970240E-01 Eh
 * total energy  :   -41.9485519 Eh     change       -0.7069391E-01 Eh
 * total energy  :   -41.9868397 Eh     change       -0.3828783E-01 Eh
 * total energy  :   -42.0087892 Eh     change       -0.2194946E-01 Eh
 * total energy  :   -42.1110656 Eh     change       -0.3356957E-02 Eh
 * total energy  :   -42.1143583 Eh     change       -0.3292710E-02 Eh
 * total energy  :   -42.1176356 Eh     change       -0.3277291E-02 Eh
 * total energy  :   -42.1189759 Eh     change       -0.1340317E-02 Eh
 * total energy  :   -42.1192698 Eh     change       -0.2939019E-03 Eh
 * total energy  :   -42.1195203 Eh     change       -0.2505228E-03 Eh
 * total energy  :   -42.1196391 Eh     change       -0.1187974E-03 Eh
 * total energy  :   -42.1196997 Eh     change       -0.6059856E-04 Eh
 * total energy  :   -42.1197353 Eh     change       -0.3558488E-04 Eh
   *** GEOMETRY OPTIMIZATION CONVERGED AFTER 50 ITERATIONS ***

 final structure:
================
25
 xtb: 6.6.1 (8d0f1dd)
C            2.94847684786003        1.18482331864710        0.00758409681005
N            2.16851577691995       -0.02358991089337       -0.01076319535599
C            2.62037718226207       -1.26735385837666       -0.01790635597207
N            1.58274476293593       -2.13246488355904       -0.01484800584721
C            0.42233167597114       -1.40417401614836       -0.00463865370344
C            0.80062709655577       -0.06660539033324       -0.00084137181354
C           -0.22341812772768        0.99521422640049       -0.01750994320143
O            0.05732257810118        2.18081325805734       -0.04719683712449
N           -1.46374670276283        0.49638948185891       -0.00236791088220
C           -2.34951100040172        3.91148834083154        0.03719772498523
C           -1.87876165599494       -0.76486972644143        0.00572111152162
O           -3.02309398948841       -1.12627120677176        0.01723015094952
N           -0.84402037892790       -1.81332499143326       -0.00514794908375
C           -1.24389695311902       -3.19789423762659       -0.00809825079596
H            3.22682719053664        1.43700216161035        1.03268384676916
H            3.85191458690140        1.06126054781059       -0.58613043216389
H            2.34047952461052        1.99836211019321       -0.38889646616372
H            3.65300481745165       -1.55675516346704       -0.02632888284159
H           -1.28359134157785        4.04821309295358        0.05404505144084
H           -2.87046645880336        3.84463102557906       -0.89860629883568
H           -2.89447156577971        3.78350934440289        0.95313118243573
H           -0.87786334322685       -3.71084667787729        0.88312154492202
H           -0.88254609617713       -3.70472290746139       -0.90497933562542
H           -2.33421625396986       -3.21473267433954       -0.00572413038612
H            1.65741334194880       -3.13986272200484       -0.01955907213598

          :  Hamiltonian                  GFN2-xTB          :
         :: total energy             -42.119735330480 Eh    ::
         :: gradient norm              0.002989487638 Eh/a0 ::
         :: HOMO-LUMO gap              1.106323784585 eV    ::
         :: SCC energy               -42.651082675833 Eh    ::
         :: -> dispersion             -0.021218900226 Eh    ::
         :: repulsion energy           0.531297260194 Eh    ::

    * Orbital Energies and Occupations

         #    Occupation            Energy/Eh            Energy/eV
      -------------------------------------------------------------
         1        2.0000           -0.9110041             -24.7897
       ...           ...                  ...                  ...
        25        1.9998           -0.6534080             -17.7801
        26        1.9998           -0.6474386             -17.6177
        27        1.9995           -0.6360710             -17.3084
        28        1.9986           -0.6187054             -16.8358
        29        1.9984           -0.6163120             -16.7707
        30        1.9983           -0.6154716             -16.7478
        31        1.9980           -0.6131487             -16.6846
        32        1.9978           -0.6112557             -16.6331
        33        1.9709           -0.5702874             -15.5183
        34        1.9119           -0.5522720             -15.0281
        35        1.9054           -0.5511034             -14.9963
        36        1.8636           -0.5449440             -14.8287
        37        1.7122           -0.5317864             -14.4706 (HOMO)
        38        0.6268           -0.4911297             -13.3643 (LUMO)
        39        0.0176           -0.4287319             -11.6664
        40        0.0014           -0.3883535             -10.5676
        41        0.0002           -0.3580661              -9.7435
        42        0.0000           -0.2620556              -7.1309
        43                         -0.1965868              -5.3494
        44                         -0.1748236              -4.7572
        45                         -0.1395535              -3.7974
        46                         -0.0833557              -2.2682
        47                         -0.0576043              -1.5675
        48                         -0.0354120              -0.9636
       ...                                ...                  ...
        67                          0.5701627              15.5149
      -------------------------------------------------------------
                  HL-Gap            0.0406567 Eh            1.1063 eV

     #   Z          covCN         q      C6AA      α(0)
     1   6 C        3.692    -0.091    22.428     6.776
     2   7 N        2.834     0.088    19.710     6.594
     3   6 C        3.058     0.057    26.671     8.469
     4   7 N        2.798    -0.065    22.490     7.043
     5   6 C        3.030     0.123    25.265     8.245
     6   6 C        3.132    -0.018    28.251     8.701
     7   6 C        2.762     0.296    21.978     7.677
     8   8 O        0.858    -0.372    21.130     6.163
     9   7 N        1.843    -0.250    27.368     7.753
    10   6 C        2.779    -0.063    29.556     8.904
    11   6 C        2.708     0.338    21.249     7.545
    12   8 O        0.860    -0.326    20.258     6.035
    13   7 N        2.735    -0.070    22.589     7.059
    14   6 C        3.693    -0.067    21.971     6.707
    15   1 H        0.924     0.113     1.671     2.021
    16   1 H        0.925     0.104     1.753     2.070
    17   1 H        0.924     0.135     1.495     1.912
    18   1 H        0.926     0.125     1.575     1.962
    19   1 H        0.926     0.152     1.376     1.834
    20   1 H        0.926     0.135     1.499     1.915
    21   1 H        0.926     0.134     1.501     1.916
    22   1 H        0.924     0.081     1.966     2.193
    23   1 H        0.924     0.081     1.966     2.193
    24   1 H        0.924     0.129     1.546     1.945
    25   1 H        0.860     0.229     0.967     1.541

Wiberg/Mayer (AO) data.
largest (>0.10) Wiberg bond orders for each atom

     #   Z sym  total        # sym  WBO       # sym  WBO       # sym  WBO
 ---------------------------------------------------------------------------
     1   6 C    3.913 --     2 N    0.985    16 H    0.969    17 H    0.958
                            15 H    0.952
     2   7 N    3.716 --     3 C    1.407     6 C    1.178     1 C    0.985
     3   6 C    3.885 --     2 N    1.407     4 N    1.283    18 H    0.952
     4   7 N    3.589 --     3 C    1.283     5 C    1.170    25 H    0.919
     5   6 C    3.951 --     6 C    1.333    13 N    1.272     4 N    1.170
     6   6 C    3.814 --     5 C    1.333     2 N    1.178     7 C    1.001
     7   6 C    3.948 --     8 O    1.610     9 N    1.253     6 C    1.001
     8   8 O    1.921 --     7 C    1.610     9 N    0.135
     9   7 N    2.871 --    11 C    1.270     7 C    1.253     8 O    0.135
                            12 O    0.112
    10   6 C    2.948 --    21 H    0.979    20 H    0.979    19 H    0.968
    11   6 C    3.946 --    12 O    1.689     9 N    1.270    13 N    0.907
    12   8 O    1.987 --    11 C    1.689     9 N    0.112
    13   7 N    3.464 --     5 C    1.272    14 C    0.987    11 C    0.907
    14   6 C    3.916 --    13 N    0.987    22 H    0.963    23 H    0.963
                            24 H    0.959
    15   1 H    0.985 --     1 C    0.952
    16   1 H    0.988 --     1 C    0.969
    17   1 H    0.980 --     1 C    0.958
    18   1 H    0.983 --     3 C    0.952
    19   1 H    0.974 --    10 C    0.968
    20   1 H    0.980 --    10 C    0.979
    21   1 H    0.980 --    10 C    0.979
    22   1 H    0.981 --    14 C    0.963
    23   1 H    0.981 --    14 C    0.963
    24   1 H    0.981 --    14 C    0.959
    25   1 H    0.947 --     4 N    0.919
 ---------------------------------------------------------------------------

molecular dipole:
                 x           y           z       tot (Debye)
 q only:        2.700      -0.756       0.026
   full:        3.215      -1.410       0.036       8.923

           -------------------------------------------------
          | TOTAL ENERGY              -42.119735330480 Eh   |
          | GRADIENT NORM               0.002989487638 Eh/α |
          | HOMO-LUMO GAP               1.106323784585 eV   |
           -------------------------------------------------

 * finished run on 2024/06/05 at 20:00:19.471
