   * xtb version 6.6.1 (8d0f1dd) compiled by 'conda@1efc2f54142f' on 2023-08-01
          program call               : xtb struc.xyz --opt loose --input .xc1 --gfn2

   ID    Z sym.   atoms
    1    6 C      1, 3, 5-7, 10, 11, 14
    2    7 N      2, 4, 9, 13
    3    8 O      8, 12
    4    1 H      15-25
constraining bond 5 6 to    4.0000000 Å, actual value:    1.3842879 Å

          :  Hamiltonian                  GFN2-xTB          :
 * total energy  :   -30.0313379 Eh     change       -0.6650680E-10 Eh
 * total energy  :   -34.3291785 Eh     change       -0.4297841E+01 Eh
 * total energy  :   -37.9491093 Eh     change       -0.3619931E+01 Eh
 * total energy  :   -40.3585984 Eh     change       -0.2409489E+01 Eh
 * total energy  :   -41.4554736 Eh     change       -0.1096875E+01 Eh
 * total energy  :   -41.6635637 Eh     change       -0.2080901E+00 Eh
 * total energy  :   -41.6892152 Eh     change       -0.2565149E-01 Eh
 * total energy  :   -41.7067699 Eh     change       -0.1755472E-01 Eh
 * total energy  :   -41.7524476 Eh     change       -0.4567771E-01 Eh
 * total energy  :   -41.7691216 Eh     change       -0.1667396E-01 Eh
 * total energy  :   -41.9927671 Eh     change       -0.1920892E-03 Eh
 * total energy  :   -41.9929460 Eh     change       -0.1789506E-03 Eh
 * total energy  :   -41.9930706 Eh     change       -0.1246218E-03 Eh
 * total energy  :   -41.9931343 Eh     change       -0.6364064E-04 Eh
 * total energy  :   -41.9931984 Eh     change       -0.6413730E-04 Eh
 * total energy  :   -41.9932800 Eh     change       -0.8156143E-04 Eh
 * total energy  :   -41.9933554 Eh     change       -0.7542900E-04 Eh
 * total energy  :   -41.9934083 Eh     change       -0.5288894E-04 Eh
 * total energy  :   -41.9934465 Eh     change       -0.3815825E-04 Eh
   *** GEOMETRY OPTIMIZATION CONVERGED AFTER 51 ITERATIONS ***

 final structure:
================
25
 xtb: 6.6.1 (8d0f1dd)
C            3.59319554339140        1.10778800066769        0.41460794343396
N            2.25549673281982        0.55987409823716        0.24872191361193
C            2.12372995331998       -0.57707959739615       -0.42007010047217
N            1.12516402284855       -1.42039003070890       -0.91110939126747
C           -0.11310669723384       -1.95367347412599       -0.78806559753140
C            1.31549701096969        1.32133310616205        0.98188133199047
C            0.02913310077371        1.36724746690997        0.41689551482440
O            0.67904465902144        2.46654253260458        0.19164620692686
N           -1.09951247915175        0.86398172600084        0.06794100290810
C           -2.12737183099997        1.67938989397010       -0.57427694245512
C           -1.59090696461519       -0.41365573737114        0.59855934622081
O           -2.50929875810601       -0.38920233169421        1.36303451606116
N           -1.11008899331076       -1.58098424645845        0.03288252400078
C           -2.01626122761956       -2.70782474512569        0.32041582493268
H            3.92885035970639        0.95363355109691        1.44110403063614
H            4.30387622254003        0.66133570661093       -0.27542166290638
H            3.53977894512046        2.18239265340738        0.23711104255132
H            3.09159963700144       -0.96768000130810       -0.71596057035326
H           -1.72559280948639        2.67057649450776       -0.77192949843214
H           -2.42787708045223        1.20475884884605       -1.50787110114870
H           -2.99044135253134        1.75481220351781        0.08769779731303
H           -1.96924471427412       -2.94856046998375        1.38205395730210
H           -1.69911954860462       -3.56343635246036       -0.26806227067535
H           -3.04300984194422       -2.43852766286116        0.07388709451725
H            1.59689762491672       -2.01441309144448       -1.59450129408866

          :  Hamiltonian                  GFN2-xTB          :
         :: total energy             -41.993446452998 Eh    ::
         :: gradient norm              0.001994784698 Eh/a0 ::
         :: HOMO-LUMO gap              1.517970352486 eV    ::
         :: SCC energy               -42.479462536441 Eh    ::
         :: -> dispersion             -0.021995473007 Eh    ::
         :: repulsion energy           0.485528344749 Eh    ::

    * Orbital Energies and Occupations

         #    Occupation            Energy/Eh            Energy/eV
      -------------------------------------------------------------
         1        2.0000           -0.9159267             -24.9236
       ...           ...                  ...                  ...
        25        2.0000           -0.6682248             -18.1833
        26        1.9999           -0.6542025             -17.8018
        27        1.9999           -0.6507581             -17.7080
        28        1.9998           -0.6412352             -17.4489
        29        1.9998           -0.6388651             -17.3844
        30        1.9994           -0.6207662             -16.8919
        31        1.9992           -0.6184036             -16.8276
        32        1.9988           -0.6109370             -16.6244
        33        1.9986           -0.6081474             -16.5485
        34        1.9978           -0.6015403             -16.3687
        35        1.9948           -0.5877095             -15.9924
        36        1.9009           -0.5403201             -14.7029
        37        1.7408           -0.5237077             -14.2508 (HOMO)
        38        0.3308           -0.4679233             -12.7328 (LUMO)
        39        0.0314           -0.4280365             -11.6475
        40        0.0076           -0.4054272             -11.0322
        41        0.0006           -0.3645176              -9.9190
        42        0.0000           -0.2862737              -7.7899
        43                         -0.2219932              -6.0407
        44                         -0.2167997              -5.8994
        45                         -0.1431168              -3.8944
        46                         -0.1294800              -3.5233
        47                         -0.1163999              -3.1674
        48                         -0.0790340              -2.1506
       ...                                ...                  ...
        67                          0.5742726              15.6268
      -------------------------------------------------------------
                  HL-Gap            0.0557844 Eh            1.5180 eV

     #   Z          covCN         q      C6AA      α(0)
     1   6 C        3.729    -0.081    22.149     6.719
     2   7 N        2.735     0.045    20.465     6.719
     3   6 C        2.769     0.053    26.784     8.476
     4   7 N        2.680    -0.072    22.652     7.069
     5   6 C        1.863    -0.056    32.640     9.228
     6   6 C        2.746    -0.019    28.455     8.734
     7   6 C        2.786     0.261    22.603     7.788
     8   8 O        1.679    -0.236    17.924     5.716
     9   7 N        2.726    -0.048    22.170     6.993
    10   6 C        3.706    -0.059    21.791     6.673
    11   6 C        2.726     0.314    21.668     7.620
    12   8 O        0.859    -0.312    20.007     5.997
    13   7 N        2.730    -0.007    21.388     6.869
    14   6 C        3.751    -0.072    21.940     6.680
    15   1 H        0.924     0.114     1.661     2.016
    16   1 H        0.925     0.090     1.878     2.143
    17   1 H        0.924     0.119     1.622     1.991
    18   1 H        0.925     0.097     1.812     2.105
    19   1 H        0.925     0.106     1.732     2.058
    20   1 H        0.925     0.093     1.853     2.129
    21   1 H        0.924     0.113     1.670     2.021
    22   1 H        0.925     0.105     1.742     2.064
    23   1 H        0.925     0.110     1.693     2.035
    24   1 H        0.925     0.100     1.781     2.087
    25   1 H        0.860     0.242     0.915     1.498

Wiberg/Mayer (AO) data.
largest (>0.10) Wiberg bond orders for each atom

     #   Z sym  total        # sym  WBO       # sym  WBO       # sym  WBO
 ---------------------------------------------------------------------------
     1   6 C    3.921 --     2 N    0.975    16 H    0.974    17 H    0.958
                            15 H    0.955
     2   7 N    3.581 --     3 C    1.428     6 C    1.030     1 C    0.975
     3   6 C    3.776 --     2 N    1.428     4 N    1.166    18 H    0.945
     4   7 N    3.564 --     5 C    1.317     3 C    1.166    25 H    0.905
     5   6 C    2.813 --     4 N    1.317    13 N    1.295
     6   6 C    3.112 --     7 C    1.072     2 N    1.030     8 O    0.778
     7   6 C    3.865 --     9 N    1.466     8 O    1.225     6 C    1.072
     8   8 O    2.232 --     7 C    1.225     6 C    0.778     9 N    0.120
     9   7 N    3.587 --     7 C    1.466    10 C    0.945    11 C    0.891
                             8 O    0.120
    10   6 C    3.915 --    19 H    0.973    20 H    0.969    21 H    0.961
                             9 N    0.945
    11   6 C    3.889 --    12 O    1.772    13 N    1.122     9 N    0.891
    12   8 O    2.078 --    11 C    1.772    13 N    0.130
    13   7 N    3.595 --     5 C    1.295    11 C    1.122    14 C    0.946
                            12 O    0.130
    14   6 C    3.907 --    23 H    0.971    24 H    0.969    22 H    0.964
                            13 N    0.946
    15   1 H    0.978 --     1 C    0.955
    16   1 H    0.991 --     1 C    0.974
    17   1 H    0.980 --     1 C    0.958
    18   1 H    0.988 --     3 C    0.945
    19   1 H    0.988 --    10 C    0.973
    20   1 H    0.990 --    10 C    0.969
    21   1 H    0.985 --    10 C    0.961
    22   1 H    0.985 --    14 C    0.964
    23   1 H    0.987 --    14 C    0.971
    24   1 H    0.984 --    14 C    0.969
    25   1 H    0.934 --     4 N    0.905
 ---------------------------------------------------------------------------

molecular dipole:
                 x           y           z       tot (Debye)
 q only:        1.482      -1.108      -0.940
   full:        1.584      -0.766      -1.190       5.399

           -------------------------------------------------
          | TOTAL ENERGY              -41.993446452998 Eh   |
          | GRADIENT NORM               0.001994784698 Eh/α |
          | HOMO-LUMO GAP               1.517970352486 eV   |
           -------------------------------------------------

 * finished run on 2024/06/05 at 19:57:54.632
