   * xtb version 6.6.1 (8d0f1dd) compiled by 'conda@1efc2f54142f' on 2023-08-01
          program call               : xtb struc.xyz --opt loose --input .xc1 --gfn2

   ID    Z sym.   atoms
    1    7 N      1, 17
    2    6 C      2-6, 8, 9, 11-16, 18-23, 25, 26, 28-33
    3    8 O      7, 10, 24, 27
    4    1 H      34-72
constraining bond 18 20 to    5.0000000 Å, actual value:    2.4843253 Å

          :  Hamiltonian                  GFN2-xTB          :
 * total energy  :   -98.2741357 Eh     change       -0.4035485E-08 Eh
 * total energy  :   -98.5860633 Eh     change       -0.3119277E+00 Eh
 * total energy  :   -98.7751887 Eh     change       -0.1891254E+00 Eh
 * total energy  :   -98.8975861 Eh     change       -0.1223974E+00 Eh
 * total energy  :   -98.9855992 Eh     change       -0.8801301E-01 Eh
 * total energy  :   -99.0449000 Eh     change       -0.5930083E-01 Eh
 * total energy  :   -99.0828810 Eh     change       -0.3798104E-01 Eh
 * total energy  :   -99.1226455 Eh     change       -0.3976453E-01 Eh
 * total energy  :   -99.1876003 Eh     change       -0.6495476E-01 Eh
 * total energy  :   -99.2409617 Eh     change       -0.5336136E-01 Eh
 * total energy  :   -99.3262086 Eh     change       -0.7914123E-04 Eh
 * total energy  :   -99.3262874 Eh     change       -0.7877683E-04 Eh
 * total energy  :   -99.3263387 Eh     change       -0.5127882E-04 Eh
 * total energy  :   -99.3263991 Eh     change       -0.6041271E-04 Eh
 * total energy  :   -99.3264642 Eh     change       -0.6512049E-04 Eh
 * total energy  :   -99.3265311 Eh     change       -0.6690640E-04 Eh
 * total energy  :   -99.3266233 Eh     change       -0.9217952E-04 Eh
 * total energy  :   -99.3267213 Eh     change       -0.9805986E-04 Eh
 * total energy  :   -99.3267642 Eh     change       -0.4290812E-04 Eh
   *** GEOMETRY OPTIMIZATION CONVERGED AFTER 44 ITERATIONS ***

 final structure:
================
72
 xtb: 6.6.1 (8d0f1dd)
N           -2.49005970270928        3.13573851927456        2.41601206121884
C           -2.34771716523357        2.28960888338741        1.50796930909021
C           -3.35699636514155        2.03417644903500        0.42068679799273
C           -3.81930015901539        0.58980237316557        0.49092250444582
C           -4.57188283645519        0.04887434492383       -0.55341585933662
C           -5.00541978117469       -1.26682434720249       -0.52865184169829
O           -5.72915946870416       -1.86608525294022       -1.49751533152829
C           -6.20389305871946       -1.09655936829508       -2.57777735940357
C           -4.67534661587010       -2.09115357280997        0.58110954397987
O           -5.10985115009409       -3.36594945720177        0.51061161961203
C           -4.87516410103442       -4.22867718107803        1.59912003125981
C           -3.95108721288588       -1.53966696489289        1.62713210017923
C           -3.53340923681815       -0.21593808600166        1.58297659395162
C           -2.61057229019988        2.30838924201956       -0.91524653366145
C           -1.71202114746863        1.16948864973690       -1.43518442941284
C           -0.53280078948872        0.88985050679636       -0.57803459634366
N           -0.13052640680942       -0.31187702413553       -0.17950414889262
C            0.94614823921760       -0.50711146831305        0.57046916612066
C            4.21821149602888       -0.50243452398834       -2.44453138968533
C            5.37162563338752       -0.26046006423283       -1.73924715001307
C            6.06814232478443        0.97523633734027       -1.85653418199324
C            7.21605838455438        1.21613507706880       -1.14723308776044
C            7.73812330975925        0.25384603610107       -0.27660992399360
O            8.84106764523521        0.39153639819119        0.46671494464132
C            9.58012157539409        1.59042437062383        0.41229273115389
C            7.06079367232633       -1.00127995739262       -0.13725923345087
O            7.64217022386706       -1.85761869974641        0.72762774843503
C            7.04542698545109       -3.11392823204287        0.94855516022772
C            5.91598472054974       -1.23852596882970       -0.85395730983641
C           -0.89651885963770       -1.48597782344778       -0.56579512447785
C           -4.61280314081123        2.95064190443770        0.51730434488748
C           -5.39157211760365        2.69884165809874        1.80620573897162
C           -4.28742643203833        4.43658379509684        0.39645436517787
H           -4.82845259050086        0.67190549069990       -1.39437782542757
H           -6.82385984382238       -0.26339974592953       -2.23377903901755
H           -6.81055212931263       -1.77476333620312       -3.17443277898407
H           -5.38236888422007       -0.71360413017806       -3.19222558319142
H           -5.34416747339120       -3.85582217541233        2.51439506640927
H           -5.32844870059499       -5.17839433034800        1.32242483388750
H           -3.80394447577301       -4.37546724949045        1.77143166003334
H           -3.71070773555617       -2.13227561818820        2.49470633015892
H           -2.99285009534422        0.18275781378478        2.42695601000613
H           -3.35024250130401        2.51724671568738       -1.68841861224465
H           -2.00464077569539        3.20689249662347       -0.79021634652000
H           -2.31646547032226        0.27771462822564       -1.58375727315788
H           -1.35185187331574        1.49480109370411       -2.42024311712831
H           -1.44386928214143        1.66977120360276        1.38483989826070
H            0.11641953278436        1.71663960705921       -0.33320671443580
H            1.22870395001265       -1.49709790649526        0.86011960586070
H            1.54285325548239        0.32912856293623        0.87851860590900
H            3.80776337355916        0.23301145835732       -3.11206344203507
H            3.70342806059598       -1.44286843268135       -2.36357038384254
H            5.67921147228352        1.72828190836976       -2.52391280767347
H            7.72161083652454        2.16131716471687       -1.26454463533992
H            8.98261522550472        2.44312641933040        0.74866073813386
H            9.95859070165686        1.78360008798967       -0.59541248362552
H           10.41892847822720        1.44708192267496        1.09121044333371
H            7.67306474254948       -3.60993735038931        1.68614552684881
H            6.03080530955243       -3.00888092758922        1.34583699945328
H            7.01933927606826       -3.71210547115029        0.03258221175609
H            5.39806531296349       -2.18011084603175       -0.76877421844182
H           -0.95374911775539       -1.55688532239145       -1.65144059255718
H           -1.90524585086927       -1.43339753423001       -0.15477964606029
H           -0.41101114475374       -2.38054602224053       -0.18453847395368
H           -5.25983573716424        2.67576901599227       -0.32416778847601
H           -4.79546673412264        2.99337530128616        2.66427533082877
H           -5.66144769664275        1.65010246589857        1.90572378191581
H           -6.30475757579113        3.28833350427375        1.80161852536843
H           -3.63070002446594        4.74331463217853        1.20456474744750
H           -3.81997294530322        4.67541188072327       -0.55495156218898
H           -5.20847285807667        5.00965383607866        0.46893055596790
H           -1.73214858717910        3.25135215852198        3.08147003547771

          :  Hamiltonian                  GFN2-xTB          :
         :: total energy             -99.326764253213 Eh    ::
         :: gradient norm              0.001787884517 Eh/a0 ::
         :: HOMO-LUMO gap              0.760021294291 eV    ::
         :: SCC energy              -100.729900293139 Eh    ::
         :: -> dispersion             -0.071455033998 Eh    ::
         :: repulsion energy           1.401328217350 Eh    ::

    * Orbital Energies and Occupations

         #    Occupation            Energy/Eh            Energy/eV
      -------------------------------------------------------------
         1        2.0000           -0.8135771             -22.1386
       ...           ...                  ...                  ...
        78        1.9978           -0.5256230             -14.3029
        79        1.9977           -0.5247554             -14.2793
        80        1.9969           -0.5201159             -14.1531
        81        1.9962           -0.5169836             -14.0678
        82        1.9945           -0.5113998             -13.9159
        83        1.9938           -0.5092961             -13.8587
        84        1.9924           -0.5060746             -13.7710
        85        1.9881           -0.4989673             -13.5776
        86        1.9780           -0.4891859             -13.3114
        87        1.9261           -0.4695670             -12.7776
        88        1.9147           -0.4672122             -12.7135
        89        1.8601           -0.4589131             -12.4877
        90        1.5719           -0.4385384             -11.9332 (HOMO)
        91        0.7725           -0.4106081             -11.1732 (LUMO)
        92        0.0135           -0.3388571              -9.2208
        93        0.0088           -0.3320712              -9.0361
        94        0.0032           -0.3157964              -8.5933
        95        0.0025           -0.3123089              -8.4984
        96        0.0019           -0.3076693              -8.3721
        97        0.0004           -0.2836725              -7.7191
        98        0.0000           -0.1901887              -5.1753
        99        0.0000           -0.1764276              -4.8008
       100                         -0.1007781              -2.7423
       101                         -0.0653908              -1.7794
       ...                                ...                  ...
       171                          0.5927824              16.1304
      -------------------------------------------------------------
                  HL-Gap            0.0279303 Eh            0.7600 eV

     #   Z          covCN         q      C6AA      α(0)
     1   7 N        1.774    -0.266    27.733     7.798
     2   6 C        2.828     0.102    25.741     8.314
     3   6 C        3.907     0.007    20.405     6.421
     4   6 C        2.974     0.004    27.921     8.667
     5   6 C        2.920    -0.080    29.988     8.980
     6   6 C        2.862     0.128    25.201     8.229
     7   8 O        1.706    -0.231    17.836     5.702
     8   6 C        3.644     0.028    20.448     6.500
     9   6 C        2.864     0.127    25.219     8.232
    10   8 O        1.706    -0.229    17.803     5.697
    11   6 C        3.645     0.027    20.458     6.500
    12   6 C        2.913    -0.074    29.854     8.960
    13   6 C        2.921    -0.051    29.274     8.873
    14   6 C        3.811    -0.064    21.711     6.632
    15   6 C        3.801    -0.067    21.787     6.646
    16   6 C        2.868    -0.042    29.031     8.832
    17   7 N        2.729     0.101    19.497     6.558
    18   6 C        2.822    -0.108    30.705     9.080
    19   6 C        2.852    -0.091    30.287     9.020
    20   6 C        2.959     0.024    27.466     8.596
    21   6 C        2.921    -0.036    28.897     8.815
    22   6 C        2.906    -0.062    29.543     8.912
    23   6 C        2.864     0.141    24.916     8.182
    24   8 O        1.706    -0.203    17.379     5.629
    25   6 C        3.645     0.022    20.545     6.515
    26   6 C        2.857     0.136    25.033     8.201
    27   8 O        1.706    -0.230    17.811     5.698
    28   6 C        3.646     0.027    20.458     6.500
    29   6 C        2.918    -0.077    29.930     8.971
    30   6 C        3.720    -0.078    22.104     6.715
    31   6 C        3.853    -0.007    20.670     6.466
    32   6 C        3.756    -0.117    22.801     6.808
    33   6 C        3.755    -0.120    22.846     6.815
    34   1 H        0.926     0.054     2.276     2.359
    35   1 H        0.924     0.055     2.264     2.353
    36   1 H        0.925     0.081     1.969     2.194
    37   1 H        0.924     0.047     2.355     2.400
    38   1 H        0.924     0.056     2.246     2.344
    39   1 H        0.925     0.081     1.969     2.194
    40   1 H        0.924     0.048     2.346     2.395
    41   1 H        0.926     0.053     2.277     2.360
    42   1 H        0.926     0.043     2.415     2.430
    43   1 H        0.925     0.057     2.234     2.337
    44   1 H        0.924     0.052     2.294     2.368
    45   1 H        0.925     0.057     2.233     2.337
    46   1 H        0.923     0.065     2.141     2.288
    47   1 H        0.923     0.015     2.813     2.623
    48   1 H        0.926     0.056     2.244     2.342
    49   1 H        0.927     0.061     2.192     2.315
    50   1 H        0.926     0.058     2.221     2.331
    51   1 H        0.926     0.053     2.280     2.361
    52   1 H        0.926     0.049     2.326     2.385
    53   1 H        0.926     0.059     2.212     2.326
    54   1 H        0.926     0.060     2.194     2.316
    55   1 H        0.924     0.060     2.203     2.321
    56   1 H        0.924     0.062     2.177     2.307
    57   1 H        0.925     0.086     1.918     2.166
    58   1 H        0.925     0.081     1.966     2.193
    59   1 H        0.924     0.049     2.334     2.389
    60   1 H        0.924     0.054     2.267     2.355
    61   1 H        0.926     0.055     2.253     2.347
    62   1 H        0.925     0.082     1.957     2.188
    63   1 H        0.924     0.083     1.947     2.182
    64   1 H        0.925     0.084     1.937     2.176
    65   1 H        0.924     0.037     2.488     2.467
    66   1 H        0.925     0.067     2.115     2.274
    67   1 H        0.925     0.034     2.523     2.484
    68   1 H        0.925     0.051     2.308     2.376
    69   1 H        0.925     0.065     2.138     2.287
    70   1 H        0.925     0.037     2.495     2.470
    71   1 H        0.925     0.054     2.276     2.359
    72   1 H        0.860     0.158     1.345     1.817

Wiberg/Mayer (AO) data.
largest (>0.10) Wiberg bond orders for each atom

     #   Z sym  total        # sym  WBO       # sym  WBO       # sym  WBO
 ---------------------------------------------------------------------------
     1   7 N    3.019 --     2 C    1.956    72 H    0.940
     2   6 C    3.934 --     1 N    1.956     3 C    0.992    47 H    0.914
     3   6 C    3.971 --     2 C    0.992     4 C    0.975    14 C    0.951
                            31 C    0.943
     4   6 C    3.946 --    13 C    1.411     5 C    1.369     3 C    0.975
     5   6 C    3.961 --     6 C    1.399     4 C    1.369    34 H    0.958
     6   6 C    3.902 --     5 C    1.399     9 C    1.222     7 O    1.098
     7   8 O    2.250 --     6 C    1.098     8 C    0.978
     8   6 C    3.932 --     7 O    0.978    36 H    0.977    35 H    0.974
                            37 H    0.973
     9   6 C    3.898 --    12 C    1.388     6 C    1.222    10 O    1.100
    10   8 O    2.249 --     9 C    1.100    11 C    0.978
    11   6 C    3.931 --    10 O    0.978    39 H    0.977    40 H    0.973
                            38 H    0.973
    12   6 C    3.961 --    13 C    1.406     9 C    1.388    41 H    0.963
    13   6 C    3.951 --     4 C    1.411    12 C    1.406    42 H    0.962
    14   6 C    3.973 --    15 C    0.983    44 H    0.973    43 H    0.968
                             3 C    0.951
    15   6 C    3.986 --    16 C    1.051    14 C    0.983    45 H    0.962
                            46 H    0.939
    16   6 C    3.669 --    17 N    1.352    15 C    1.051    48 H    0.960
                            18 C    0.217
    17   7 N    3.747 --    18 C    1.366    16 C    1.352    30 C    0.984
    18   6 C    3.597 --    17 N    1.366    49 H    0.975    50 H    0.974
                            16 C    0.217
    19   6 C    3.542 --    20 C    1.500    52 H    0.979    51 H    0.979
    20   6 C    3.979 --    19 C    1.500    21 C    1.207    29 C    1.199
    21   6 C    3.808 --    22 C    1.523    20 C    1.207    53 H    0.967
    22   6 C    3.969 --    21 C    1.523    23 C    1.316    54 H    0.961
    23   6 C    3.769 --    22 C    1.316    26 C    1.172    24 O    1.143
    24   8 O    2.259 --    23 C    1.143    25 C    0.972
    25   6 C    3.924 --    57 H    0.976    24 O    0.972    55 H    0.971
                            56 H    0.971
    26   6 C    3.914 --    29 C    1.482    23 C    1.172    27 O    1.098
    27   8 O    2.254 --    26 C    1.098    28 C    0.978
    28   6 C    3.931 --    27 O    0.978    58 H    0.977    59 H    0.974
                            60 H    0.973
    29   6 C    3.853 --    26 C    1.482    20 C    1.199    61 H    0.962
    30   6 C    3.955 --    17 N    0.984    64 H    0.977    62 H    0.971
                            63 H    0.962
    31   6 C    3.970 --    33 C    1.008    32 C    1.008    65 H    0.958
                             3 C    0.943
    32   6 C    3.977 --    31 C    1.008    67 H    0.981    68 H    0.981
                            66 H    0.973
    33   6 C    3.978 --    31 C    1.008    70 H    0.982    71 H    0.980
                            69 H    0.973
    34   1 H    0.996 --     5 C    0.958
    35   1 H    0.993 --     8 C    0.974
    36   1 H    0.993 --     8 C    0.977
    37   1 H    0.993 --     8 C    0.973
    38   1 H    0.992 --    11 C    0.973
    39   1 H    0.993 --    11 C    0.977
    40   1 H    0.993 --    11 C    0.973
    41   1 H    0.995 --    12 C    0.963
    42   1 H    0.997 --    13 C    0.962
    43   1 H    0.995 --    14 C    0.968
    44   1 H    0.996 --    14 C    0.973
    45   1 H    0.996 --    15 C    0.962
    46   1 H    0.976 --    15 C    0.939
    47   1 H    0.978 --     2 C    0.914
    48   1 H    0.996 --    16 C    0.960
    49   1 H    0.996 --    18 C    0.975
    50   1 H    0.997 --    18 C    0.974
    51   1 H    0.996 --    19 C    0.979
    52   1 H    0.997 --    19 C    0.979
    53   1 H    0.996 --    21 C    0.967
    54   1 H    0.994 --    22 C    0.961
    55   1 H    0.989 --    25 C    0.971
    56   1 H    0.989 --    25 C    0.971
    57   1 H    0.992 --    25 C    0.976
    58   1 H    0.993 --    28 C    0.977
    59   1 H    0.994 --    28 C    0.974
    60   1 H    0.993 --    28 C    0.973
    61   1 H    0.995 --    29 C    0.962
    62   1 H    0.993 --    30 C    0.971
    63   1 H    0.993 --    30 C    0.962
    64   1 H    0.993 --    30 C    0.977
    65   1 H    0.990 --    31 C    0.958
    66   1 H    0.990 --    32 C    0.973
    67   1 H    0.996 --    32 C    0.981
    68   1 H    0.994 --    32 C    0.981
    69   1 H    0.991 --    33 C    0.973
    70   1 H    0.996 --    33 C    0.982
    71   1 H    0.993 --    33 C    0.980
    72   1 H    0.968 --     1 N    0.940
 ---------------------------------------------------------------------------

molecular dipole:
                 x           y           z       tot (Debye)
 q only:        1.323      -0.188      -0.533
   full:        1.667      -0.296      -0.612       4.577

           -------------------------------------------------
          | TOTAL ENERGY              -99.326764253213 Eh   |
          | GRADIENT NORM               0.001787884517 Eh/α |
          | HOMO-LUMO GAP               0.760021294291 eV   |
           -------------------------------------------------

 * finished run on 2024/04/06 at 11:13:39.826
