   * xtb version 6.6.1 (8d0f1dd) compiled by 'conda@1efc2f54142f' on 2023-08-01
          program call               : xtb struc.xyz --opt loose --input .xc1 --gfn2

   ID    Z sym.   atoms
    1    7 N      1, 17
    2    6 C      2-6, 8, 9, 11-16, 18-23, 25, 26, 28-33
    3    8 O      7, 10, 24, 27
    4    1 H      34-72
constraining bond 12 38 to    4.7133300 Å, actual value:    2.8296495 Å

          :  Hamiltonian                  GFN2-xTB          :
 * total energy  :  -100.0376827 Eh     change       -0.4035485E-08 Eh
 * total energy  :  -100.5159446 Eh     change       -0.4782619E+00 Eh
 * total energy  :  -101.0871413 Eh     change       -0.5711967E+00 Eh
 * total energy  :  -101.7338995 Eh     change       -0.6467582E+00 Eh
 * total energy  :   -98.1093305 Eh     change        0.3624569E+01 Eh
 * total energy  :  -101.7982963 Eh     change       -0.3688966E+01 Eh
 * total energy  :  -101.8550075 Eh     change       -0.5671118E-01 Eh
 * total energy  :  -101.8960258 Eh     change       -0.4101825E-01 Eh
 * total energy  :  -101.9258332 Eh     change       -0.2980748E-01 Eh
 * total energy  :  -101.9346145 Eh     change       -0.8781287E-02 Eh
 * total energy  :  -101.9840516 Eh     change       -0.8184333E-03 Eh
 * total energy  :  -101.9850212 Eh     change       -0.9696347E-03 Eh
 * total energy  :  -101.9855855 Eh     change       -0.5643211E-03 Eh
 * total energy  :  -101.9861048 Eh     change       -0.5192342E-03 Eh
 * total energy  :  -101.9863104 Eh     change       -0.2055829E-03 Eh
 * total energy  :  -101.9864014 Eh     change       -0.9100880E-04 Eh
 * total energy  :  -101.9864686 Eh     change       -0.6726954E-04 Eh
 * total energy  :  -101.9865295 Eh     change       -0.6084975E-04 Eh
 * total energy  :  -101.9865746 Eh     change       -0.4506098E-04 Eh
   *** GEOMETRY OPTIMIZATION CONVERGED AFTER 32 ITERATIONS ***

 final structure:
================
72
 xtb: 6.6.1 (8d0f1dd)
N           -1.93276732476001        2.81897286263484        2.26150310881839
C           -1.87459656650200        2.08297247842689        1.25313643374697
C           -3.01365799402017        1.85455997612588        0.29767373568822
C           -3.46128317361128        0.39884757105388        0.36534722680820
C           -4.40520347877540       -0.05663675141920       -0.60295390321425
C           -4.92558185472427       -1.33237837479758       -0.55322493674016
O           -5.84702296826411       -1.83102331303385       -1.40790460901355
C           -6.39808718429969       -0.98517359984053       -2.39089159818346
C           -4.49877182658970       -2.24221210845245        0.44397340461437
O           -5.02455907885483       -3.45027201547727        0.42367652841393
C           -4.74500580538578       -4.42554671037018        1.23463205381923
C           -3.47361802552947       -1.86898353076194        1.49435345872074
C           -3.02245767856870       -0.43503155672197        1.33114701314858
C           -2.45178265201831        2.17203676685661       -1.11211644109796
C           -1.49527406650734        1.10528794987285       -1.67648454325545
C           -0.16350472083305        1.09852758739177       -1.02981739047026
N            0.51575945714847        0.01161065154261       -0.66760822394137
C            1.89888936186224        0.10636755135866       -0.26458377937033
C            2.85892280656756       -0.35260480191770       -1.37933556092354
C            4.28234923011661       -0.15153002054336       -0.93952503007283
C            4.93049649641303        1.04895389023698       -1.17623470078719
C            6.23253239189644        1.25015154681449       -0.74416431717916
C            6.91177159259085        0.25312882392398       -0.05991478500641
O            8.17321463207741        0.33911271736216        0.40542024667949
C            8.90628055861140        1.52174144612811        0.18398823581814
C            6.25446479855406       -0.98230238346408        0.18933603801711
O            6.98829958250684       -1.89808714097504        0.85586431226542
C            6.43276712497889       -3.16273101598335        1.12366717277613
C            4.95271433458348       -1.16014302707652       -0.25067821952544
C           -0.05649800179698       -1.30945504150520       -0.75094212123132
C           -4.25350393707123        2.75036268500189        0.59062242988645
C           -4.87505540503646        2.42509115709113        1.94729471366988
C           -3.94889642022911        4.24389188011020        0.51124693665691
H           -4.74110247757779        0.62439019242242       -1.36313686209884
H           -6.89944345412578       -0.12311051376747       -1.94108463602189
H           -7.13052331119099       -1.59152562160050       -2.91980579605820
H           -5.63695962674166       -0.64124381022632       -3.09790056408503
H           -3.71824000546829       -1.98400783783216        2.18786446265229
H           -5.27686428022263       -5.33932771726325        1.05247848089338
H           -4.05044451786558       -4.33956330961446        2.05236573280424
H           -2.57711865773816       -2.51246049364672        1.28973492031399
H           -2.34645395237123       -0.08903283261293        2.09796079507250
H           -3.28505415845297        2.27775429038026       -1.80617989802212
H           -1.93237705291414        3.13042205765250       -1.07503054930196
H           -1.97210461375796        0.12757125640497       -1.63299245517511
H           -1.34273288781212        1.35148422034701       -2.73580023043616
H           -0.95743430399829        1.55687517348179        0.92636066053078
H            0.36767827882610        2.03670236142652       -0.97423662279830
H            2.05679213903190       -0.51084964535842        0.62471992842892
H            2.12854924814941        1.14175626884993       -0.00590030421375
H            2.66018617588406        0.23497782427364       -2.27717291347602
H            2.68075450781983       -1.40424174677280       -1.60708088408331
H            4.42711433970397        1.83837807397525       -1.71348276814532
H            6.71294913651787        2.19229330254404       -0.95078765957298
H            8.43239303305608        2.38308706407224        0.66478976171495
H            9.03084838661473        1.72188951769508       -0.88445157426164
H            9.88170482664634        1.34914833275397        0.63466176979802
H            7.20946830229011       -3.71824784743092        1.64567607770845
H            5.55013640619851       -3.08605782480894        1.76707739022362
H            6.16956514337629       -3.68974718204460        0.20115207191537
H            4.44818931146919       -2.09713675841071       -0.07301864117577
H           -0.13809402459826       -1.64377894723520       -1.78812492337680
H           -1.05071787214321       -1.31628445137536       -0.30135376733843
H            0.57706125251424       -2.00854552392856       -0.20999111301267
H           -4.99577364712543        2.51794165935028       -0.18133503957847
H           -4.17878856892393        2.66801367475504        2.74290608637111
H           -5.14057413735973        1.37340743974691        2.01718667237282
H           -5.77750082412340        3.01480743694863        2.08389909760300
H           -3.18977284498372        4.51350642819860        1.23846759916828
H           -3.61815226151672        4.53923636935127       -0.48096482164344
H           -4.85235997919859        4.80285272797317        0.74022684110222
H           -1.08962163541651        2.92529976423213        2.81706562826884

          :  Hamiltonian                  GFN2-xTB          :
         :: total energy            -101.986574557634 Eh    ::
         :: gradient norm              0.003586148280 Eh/a0 ::
         :: HOMO-LUMO gap              1.177151664842 eV    ::
         :: SCC energy              -100.724530055684 Eh    ::
         :: -> dispersion             -0.075019960788 Eh    ::
         :: repulsion energy           1.549429095775 Eh    ::

    * Orbital Energies and Occupations

         #    Occupation            Energy/Eh            Energy/eV
      -------------------------------------------------------------
         1        2.0000           -0.8519380             -23.1824
       ...           ...                  ...                  ...
        78        1.9989           -0.5276068             -14.3569
        79        1.9989           -0.5268539             -14.3364
        80        1.9987           -0.5244528             -14.2711
        81        1.9986           -0.5235463             -14.2464
        82        1.9976           -0.5146889             -14.0054
        83        1.9967           -0.5101656             -13.8823
        84        1.9965           -0.5092456             -13.8573
        85        1.9960           -0.5069953             -13.7960
        86        1.9829           -0.4837511             -13.1635
        87        1.9819           -0.4828482             -13.1390
        88        1.9516           -0.4670685             -12.7096
        89        1.8682           -0.4505193             -12.2593
        90        1.6258           -0.4317932             -11.7497 (HOMO)
        91        0.4409           -0.3885337             -10.5725 (LUMO)
        92        0.1444           -0.3681019             -10.0166
        93        0.0187           -0.3346869              -9.1073
        94        0.0034           -0.3076102              -8.3705
        95        0.0032           -0.3067561              -8.3473
        96        0.0028           -0.3042294              -8.2785
        97        0.0000           -0.2274045              -6.1880
        98        0.0000           -0.1816930              -4.9441
        99                         -0.1310354              -3.5657
       100                         -0.0797656              -2.1705
       101                         -0.0643087              -1.7499
       ...                                ...                  ...
       171                          1.4008180              38.1182
      -------------------------------------------------------------
                  HL-Gap            0.0432595 Eh            1.1772 eV

     #   Z          covCN         q      C6AA      α(0)
     1   7 N        1.774    -0.274    27.915     7.824
     2   6 C        2.827     0.098    25.816     8.326
     3   6 C        3.908     0.005    20.432     6.425
     4   6 C        2.959     0.009    27.809     8.650
     5   6 C        2.916    -0.095    30.395     9.041
     6   6 C        2.847     0.133    25.084     8.208
     7   8 O        1.706    -0.243    18.032     5.733
     8   6 C        3.644     0.028    20.442     6.499
     9   6 C        2.866     0.074    26.335     8.412
    10   8 O        1.711    -0.074    15.463     5.309
    11   6 C        2.744    -0.000    28.013     8.666
    12   6 C        3.805    -0.096    22.334     6.728
    13   6 C        2.905    -0.073    29.822     8.954
    14   6 C        3.812    -0.064    21.725     6.634
    15   6 C        3.802    -0.068    21.805     6.648
    16   6 C        2.842     0.001    27.990     8.670
    17   7 N        2.729     0.004    21.189     6.837
    18   6 C        3.755    -0.015    20.905     6.519
    19   6 C        3.807    -0.070    21.838     6.652
    20   6 C        2.969    -0.002    28.067     8.690
    21   6 C        2.922    -0.050    29.236     8.867
    22   6 C        2.914    -0.068    29.699     8.936
    23   6 C        2.865     0.132    25.105     8.213
    24   8 O        1.706    -0.226    17.742     5.687
    25   6 C        3.645     0.026    20.469     6.502
    26   6 C        2.863     0.132    25.116     8.215
    27   8 O        1.706    -0.228    17.787     5.694
    28   6 C        3.645     0.029    20.430     6.496
    29   6 C        2.920    -0.080    30.005     8.983
    30   6 C        3.700    -0.068    21.972     6.703
    31   6 C        3.853    -0.008    20.680     6.468
    32   6 C        3.756    -0.119    22.837     6.814
    33   6 C        3.755    -0.119    22.827     6.812
    34   1 H        0.926     0.052     2.292     2.368
    35   1 H        0.924     0.054     2.269     2.356
    36   1 H        0.925     0.080     1.980     2.201
    37   1 H        0.924     0.048     2.345     2.395
    38   1 H        0.931     0.122     1.598     1.977
    39   1 H        0.926     0.084     1.940     2.178
    40   1 H        0.926     0.054     2.270     2.356
    41   1 H        0.919     0.050     2.318     2.381
    42   1 H        0.926     0.038     2.477     2.461
    43   1 H        0.925     0.059     2.212     2.326
    44   1 H        0.924     0.054     2.276     2.359
    45   1 H        0.925     0.064     2.155     2.295
    46   1 H        0.923     0.077     2.012     2.218
    47   1 H        0.922     0.004     2.983     2.701
    48   1 H        0.926     0.066     2.125     2.279
    49   1 H        0.924     0.064     2.149     2.293
    50   1 H        0.924     0.067     2.123     2.278
    51   1 H        0.924     0.054     2.270     2.356
    52   1 H        0.924     0.054     2.274     2.358
    53   1 H        0.926     0.044     2.401     2.423
    54   1 H        0.926     0.057     2.237     2.339
    55   1 H        0.924     0.053     2.289     2.366
    56   1 H        0.924     0.054     2.268     2.355
    57   1 H        0.925     0.081     1.972     2.196
    58   1 H        0.925     0.080     1.978     2.200
    59   1 H        0.924     0.046     2.365     2.405
    60   1 H        0.924     0.051     2.312     2.378
    61   1 H        0.926     0.045     2.387     2.416
    62   1 H        0.924     0.074     2.046     2.237
    63   1 H        0.924     0.076     2.023     2.224
    64   1 H        0.925     0.077     2.015     2.220
    65   1 H        0.924     0.036     2.504     2.474
    66   1 H        0.925     0.068     2.105     2.269
    67   1 H        0.925     0.033     2.550     2.497
    68   1 H        0.925     0.050     2.325     2.384
    69   1 H        0.925     0.061     2.190     2.314
    70   1 H        0.925     0.034     2.531     2.488
    71   1 H        0.925     0.053     2.284     2.363
    72   1 H        0.860     0.155     1.370     1.833

Wiberg/Mayer (AO) data.
largest (>0.10) Wiberg bond orders for each atom

     #   Z sym  total        # sym  WBO       # sym  WBO       # sym  WBO
 ---------------------------------------------------------------------------
     1   7 N    3.035 --     2 C    1.953    72 H    0.943
     2   6 C    3.926 --     1 N    1.953     3 C    0.995    47 H    0.904
     3   6 C    3.979 --     2 C    0.995     4 C    0.966    14 C    0.958
                            31 C    0.945
     4   6 C    3.966 --    13 C    1.671     5 C    1.202     3 C    0.966
     5   6 C    3.807 --     6 C    1.421     4 C    1.202    34 H    0.959
     6   6 C    3.897 --     5 C    1.421     9 C    1.237     7 O    1.090
     7   8 O    2.254 --     6 C    1.090     8 C    0.976
     8   6 C    3.933 --    36 H    0.977     7 O    0.976    37 H    0.975
                            35 H    0.975
     9   6 C    3.764 --     6 C    1.237    10 O    1.174    12 C    1.004
                            11 C    0.229
    10   8 O    2.562 --    11 C    1.274     9 C    1.174
    11   6 C    3.582 --    10 O    1.274    40 H    0.970    39 H    0.969
                             9 C    0.229
    12   6 C    3.975 --    13 C    1.020     9 C    1.004    38 H    0.947
                            41 H    0.919
    13   6 C    3.840 --     4 C    1.671    12 C    1.020    42 H    0.962
    14   6 C    3.974 --    15 C    0.983    44 H    0.972    43 H    0.968
                             3 C    0.958
    15   6 C    3.987 --    16 C    1.059    14 C    0.983    45 H    0.961
                            46 H    0.929
    16   6 C    3.559 --    17 N    1.380    15 C    1.059    48 H    0.958
    17   7 N    3.456 --    16 C    1.380    30 C    1.000    18 C    0.989
    18   6 C    3.957 --    17 N    0.989    50 H    0.968    19 C    0.967
                            49 H    0.964
    19   6 C    3.976 --    20 C    1.007    51 H    0.972    52 H    0.972
                            18 C    0.967
    20   6 C    3.949 --    21 C    1.414    29 C    1.378    19 C    1.007
    21   6 C    3.955 --    22 C    1.415    20 C    1.414    53 H    0.968
    22   6 C    3.963 --    21 C    1.415    23 C    1.387    54 H    0.963
    23   6 C    3.901 --    22 C    1.387    26 C    1.224    24 O    1.106
    24   8 O    2.255 --    23 C    1.106    25 C    0.977
    25   6 C    3.930 --    57 H    0.977    24 O    0.977    55 H    0.973
                            56 H    0.973
    26   6 C    3.904 --    29 C    1.398    23 C    1.224    27 O    1.098
    27   8 O    2.254 --    26 C    1.098    28 C    0.980
    28   6 C    3.934 --    27 O    0.980    58 H    0.977    59 H    0.974
                            60 H    0.974
    29   6 C    3.962 --    26 C    1.398    20 C    1.378    61 H    0.963
    30   6 C    3.961 --    17 N    1.000    64 H    0.978    62 H    0.967
                            63 H    0.964
    31   6 C    3.977 --    33 C    1.009    32 C    1.009    65 H    0.961
                             3 C    0.945
    32   6 C    3.983 --    31 C    1.009    67 H    0.983    68 H    0.982
                            66 H    0.975
    33   6 C    3.985 --    31 C    1.009    70 H    0.984    71 H    0.981
                            69 H    0.977
    34   1 H    0.996 --     5 C    0.959
    35   1 H    0.995 --     8 C    0.975
    36   1 H    0.993 --     8 C    0.977
    37   1 H    0.995 --     8 C    0.975
    38   1 H    0.976 --    12 C    0.947
    39   1 H    0.992 --    11 C    0.969
    40   1 H    0.997 --    11 C    0.970
    41   1 H    0.969 --    12 C    0.919
    42   1 H    0.998 --    13 C    0.962
    43   1 H    0.995 --    14 C    0.968
    44   1 H    0.996 --    14 C    0.972
    45   1 H    0.995 --    15 C    0.961
    46   1 H    0.969 --    15 C    0.929
    47   1 H    0.989 --     2 C    0.904
    48   1 H    0.995 --    16 C    0.958
    49   1 H    0.991 --    18 C    0.964
    50   1 H    0.995 --    18 C    0.968
    51   1 H    0.996 --    19 C    0.972
    52   1 H    0.996 --    19 C    0.972
    53   1 H    0.998 --    21 C    0.968
    54   1 H    0.995 --    22 C    0.963
    55   1 H    0.993 --    25 C    0.973
    56   1 H    0.993 --    25 C    0.973
    57   1 H    0.993 --    25 C    0.977
    58   1 H    0.993 --    28 C    0.977
    59   1 H    0.994 --    28 C    0.974
    60   1 H    0.994 --    28 C    0.974
    61   1 H    0.997 --    29 C    0.963
    62   1 H    0.984 --    30 C    0.967
    63   1 H    0.988 --    30 C    0.964
    64   1 H    0.994 --    30 C    0.978
    65   1 H    0.994 --    31 C    0.961
    66   1 H    0.992 --    32 C    0.975
    67   1 H    0.998 --    32 C    0.983
    68   1 H    0.995 --    32 C    0.982
    69   1 H    0.994 --    33 C    0.977
    70   1 H    0.998 --    33 C    0.984
    71   1 H    0.995 --    33 C    0.981
    72   1 H    0.972 --     1 N    0.943
 ---------------------------------------------------------------------------

molecular dipole:
                 x           y           z       tot (Debye)
 q only:       -0.266      -0.694      -0.662
   full:        0.019      -0.809      -0.857       2.997

           -------------------------------------------------
          | TOTAL ENERGY             -101.986574557634 Eh   |
          | GRADIENT NORM               0.003586148280 Eh/α |
          | HOMO-LUMO GAP               1.177151664842 eV   |
           -------------------------------------------------

 * finished run on 2024/04/06 at 11:16:22.177
