   * xtb version 6.6.1 (8d0f1dd) compiled by 'conda@1efc2f54142f' on 2023-08-01
          program call               : xtb xtbopt.xyz --opt crude --input .xc2 --gfn2

   ID    Z sym.   atoms
    1    7 N      1, 17
    2    6 C      2-6, 8, 9, 11-16, 18-23, 25, 26, 28-33
    3    8 O      7, 10, 24, 27
    4    1 H      34-72
########################################################################
[WARNING] Please study the warnings concerning your input carefully
-1- readin_getIntValue: could not parse ''
########################################################################

          :  Hamiltonian                  GFN2-xTB          :
 * total energy  :   -99.1738338 Eh     change       -0.5215384E-11 Eh
 * total energy  :   -99.3351755 Eh     change       -0.1613418E+00 Eh
 * total energy  :   -99.3369474 Eh     change       -0.1771830E-02 Eh
 * total energy  :   -99.3380126 Eh     change       -0.1065255E-02 Eh
 * total energy  :   -99.3382085 Eh     change       -0.1959364E-03 Eh
   *** GEOMETRY OPTIMIZATION CONVERGED AFTER 5 ITERATIONS ***

 final structure:
================
72
 xtb: 6.6.1 (8d0f1dd)
N           -1.93161726367239        2.81398695570643        2.26137131140505
C           -1.87296623091820        2.08246392875058        1.24987828961215
C           -3.01091416663797        1.85355504616924        0.29311820084025
C           -3.45176860840578        0.39596576898906        0.35564564832016
C           -4.39502636369723       -0.05759394354196       -0.61473909148244
C           -4.90926443954470       -1.33585125364936       -0.57301586287364
O           -5.83525066521017       -1.83290482083188       -1.42422183533401
C           -6.39816299252979       -0.98405828765512       -2.39920121166886
C           -4.47253236729478       -2.25003120804896        0.41886662531731
O           -5.01328631625628       -3.45069732798734        0.41167932231600
C           -4.74801814120533       -4.42196353778553        1.23047389047928
C           -3.45214655924551       -1.86553043700727        1.44492556176519
C           -3.00142331362931       -0.44607597036974        1.31216934357887
C           -2.44751287860859        2.17880638791355       -1.11531574029758
C           -1.49190740781898        1.11423598267741       -1.68320646912044
C           -0.16155541676834        1.10527728177346       -1.03348515183077
N            0.51522727992252        0.01721108018003       -0.67053321228281
C            1.89763926837708        0.10998559439074       -0.26577713190639
C            2.85748420649222       -0.34899983393064       -1.38046483077861
C            4.28071933669242       -0.14877396541349       -0.94016597702072
C            4.92884040797073        1.05198100266772       -1.17536038364885
C            6.23102486449958        1.25258589670375       -0.74341291188641
C            6.91001260766599        0.25433859422340       -0.06077571679260
O            8.17195163115107        0.33821710547570        0.40350557282830
C            8.90608536677288        1.52031202222355        0.18305095902695
C            6.25217304650156       -0.98099990470492        0.18796844990914
O            6.98618240948060       -1.89693433258228        0.85389394992050
C            6.43111375044234       -3.16204906580206        1.12042179703603
C            4.95043350767968       -1.15830746138724       -0.25205041883594
C           -0.06003664159154       -1.30258779445738       -0.75325913120257
C           -4.25173977515375        2.74806257314255        0.58638612938036
C           -4.87554082013409        2.41732899241842        1.94040066738748
C           -3.94557487480815        4.24187715873392        0.51283213371686
H           -4.73481762623860        0.62683479778072       -1.37090978961191
H           -6.89552609887613       -0.12413379672934       -1.94150971335216
H           -7.13541609374420       -1.59046868107275       -2.92148540844663
H           -5.64489223922427       -0.63728302806130       -3.11322831653942
H           -3.84718056920030       -2.02307310641076        2.45495359096990
H           -5.30578108905636       -5.32333410281686        1.06641552973944
H           -4.04468172565570       -4.34069359876826        2.03994603346480
H           -2.58259905223788       -2.54475450715594        1.36239213056876
H           -2.31945412054883       -0.10629068183552        2.07562945833018
H           -3.27985415436639        2.29052817142344       -1.80930023264932
H           -1.92681062568447        3.13589060560797       -1.07090982979735
H           -1.96879374930516        0.13647541275427       -1.64361030261177
H           -1.33729715196638        1.36359370378525       -2.74147486500730
H           -0.95453668771063        1.56077821828984        0.91958435371610
H            0.37108852842231        2.04259504047866       -0.97768488751579
H            2.05401069412763       -0.50788457938500        0.62325879615539
H            2.12845678736195        1.14488826404329       -0.00621088427471
H            2.65910345759519        0.23928266359580       -2.27792466751699
H            2.67861190063297       -1.40031042940791       -1.60889473532217
H            4.42517355927090        1.84202307395220       -1.71147749427048
H            6.71155013779036        2.19487479896750       -0.94908395028191
H            8.43291788727527        2.38175920161359        0.66434699121781
H            9.03094659798387        1.72105832744824       -0.88526570262920
H            9.88126887669404        1.34642234409724        0.63372492874451
H            7.20835372232121       -3.71814545542546        1.64102255861009
H            5.54896060067080       -3.08642575651686        1.76464173433565
H            6.16725443769104       -3.68777048709360        0.19735092855022
H            4.44534130116457       -2.09510766429227       -0.07501197094289
H           -0.14349729497476       -1.63632621990107       -1.79046264958305
H           -1.05356847768203       -1.30764896644984       -0.30138633950533
H            0.57308481531035       -2.00292073013742       -0.21350505568271
H           -4.99272266918207        2.51925347808404       -0.18793611450806
H           -4.17998136363206        2.65591430429281        2.73809572336560
H           -5.14159439924931        1.36514351938290        2.00453238896247
H           -5.77772489789327        3.00729539147015        2.07888101943440
H           -3.18656982111207        4.50772621538598        1.24169856809552
H           -3.61353760902584        4.54066568854884       -0.47785331370821
H           -4.84835442731905        4.80164448518147        0.74300652313159
H           -1.08705820394350        2.91923138079077        2.81530703308961

          :  Hamiltonian                  GFN2-xTB          :
         :: total energy             -99.338208548993 Eh    ::
         :: gradient norm              0.007314652707 Eh/a0 ::
         :: HOMO-LUMO gap              1.183622462524 eV    ::
         :: SCC energy              -100.701259331842 Eh    ::
         :: -> dispersion             -0.075053105393 Eh    ::
         :: repulsion energy           1.361790494348 Eh    ::

    * Orbital Energies and Occupations

         #    Occupation            Energy/Eh            Energy/eV
      -------------------------------------------------------------
         1        2.0000           -0.8514066             -23.1680
       ...           ...                  ...                  ...
        78        1.9989           -0.5274204             -14.3518
        79        1.9989           -0.5267930             -14.3348
        80        1.9987           -0.5243339             -14.2679
        81        1.9986           -0.5234981             -14.2451
        82        1.9976           -0.5146721             -14.0049
        83        1.9967           -0.5100851             -13.8801
        84        1.9966           -0.5093171             -13.8592
        85        1.9960           -0.5068428             -13.7919
        86        1.9823           -0.4832433             -13.1497
        87        1.9819           -0.4828252             -13.1383
        88        1.9517           -0.4670502             -12.7091
        89        1.8682           -0.4504762             -12.2581
        90        1.6295           -0.4319405             -11.7537 (HOMO)
        91        0.4399           -0.3884432             -10.5701 (LUMO)
        92        0.1424           -0.3678246             -10.0090
        93        0.0186           -0.3345534              -9.1037
        94        0.0033           -0.3072690              -8.3612
        95        0.0032           -0.3067024              -8.3458
        96        0.0028           -0.3041930              -8.2775
        97        0.0000           -0.2287349              -6.2242
        98        0.0000           -0.1816416              -4.9427
        99                         -0.1306508              -3.5552
       100                         -0.0767620              -2.0888
       101                         -0.0630846              -1.7166
       ...                                ...                  ...
       171                          0.5827361              15.8571
      -------------------------------------------------------------
                  HL-Gap            0.0434973 Eh            1.1836 eV

     #   Z          covCN         q      C6AA      α(0)
     1   7 N        1.774    -0.274    27.914     7.824
     2   6 C        2.827     0.098    25.813     8.325
     3   6 C        3.908     0.005    20.432     6.425
     4   6 C        2.960     0.010    27.801     8.648
     5   6 C        2.915    -0.095    30.383     9.039
     6   6 C        2.847     0.134    25.076     8.207
     7   8 O        1.706    -0.243    18.031     5.733
     8   6 C        3.644     0.028    20.447     6.500
     9   6 C        2.867     0.078    26.245     8.398
    10   8 O        1.711    -0.072    15.447     5.306
    11   6 C        2.744    -0.000    28.009     8.666
    12   6 C        3.806    -0.067    21.771     6.642
    13   6 C        2.906    -0.068    29.705     8.937
    14   6 C        3.813    -0.064    21.725     6.634
    15   6 C        3.802    -0.068    21.802     6.648
    16   6 C        2.842     0.001    27.988     8.670
    17   7 N        2.729     0.004    21.190     6.837
    18   6 C        3.755    -0.015    20.902     6.519
    19   6 C        3.808    -0.070    21.836     6.652
    20   6 C        2.969    -0.002    28.067     8.690
    21   6 C        2.922    -0.050    29.236     8.867
    22   6 C        2.914    -0.068    29.699     8.936
    23   6 C        2.865     0.132    25.105     8.213
    24   8 O        1.706    -0.226    17.741     5.687
    25   6 C        3.645     0.026    20.469     6.502
    26   6 C        2.863     0.132    25.116     8.215
    27   8 O        1.706    -0.228    17.786     5.694
    28   6 C        3.645     0.029    20.430     6.496
    29   6 C        2.920    -0.080    30.005     8.983
    30   6 C        3.700    -0.068    21.970     6.703
    31   6 C        3.853    -0.008    20.678     6.468
    32   6 C        3.756    -0.119    22.834     6.813
    33   6 C        3.755    -0.119    22.828     6.813
    34   1 H        0.926     0.052     2.292     2.368
    35   1 H        0.924     0.054     2.268     2.355
    36   1 H        0.925     0.080     1.978     2.199
    37   1 H        0.924     0.048     2.341     2.393
    38   1 H        0.924     0.072     2.063     2.246
    39   1 H        0.926     0.085     1.928     2.171
    40   1 H        0.926     0.054     2.270     2.356
    41   1 H        0.922     0.056     2.252     2.347
    42   1 H        0.926     0.039     2.467     2.456
    43   1 H        0.925     0.059     2.212     2.326
    44   1 H        0.924     0.054     2.275     2.359
    45   1 H        0.925     0.064     2.156     2.296
    46   1 H        0.923     0.077     2.013     2.219
    47   1 H        0.922     0.005     2.981     2.700
    48   1 H        0.926     0.066     2.125     2.280
    49   1 H        0.924     0.064     2.150     2.293
    50   1 H        0.924     0.067     2.124     2.279
    51   1 H        0.924     0.054     2.271     2.357
    52   1 H        0.924     0.054     2.274     2.358
    53   1 H        0.926     0.044     2.401     2.423
    54   1 H        0.926     0.057     2.237     2.339
    55   1 H        0.924     0.053     2.289     2.366
    56   1 H        0.924     0.054     2.268     2.355
    57   1 H        0.925     0.081     1.973     2.196
    58   1 H        0.925     0.080     1.978     2.200
    59   1 H        0.924     0.046     2.365     2.405
    60   1 H        0.924     0.051     2.312     2.378
    61   1 H        0.926     0.045     2.387     2.416
    62   1 H        0.924     0.073     2.048     2.238
    63   1 H        0.924     0.076     2.018     2.222
    64   1 H        0.925     0.076     2.018     2.221
    65   1 H        0.924     0.036     2.504     2.475
    66   1 H        0.925     0.068     2.105     2.269
    67   1 H        0.925     0.032     2.552     2.498
    68   1 H        0.925     0.050     2.323     2.384
    69   1 H        0.925     0.061     2.190     2.314
    70   1 H        0.925     0.034     2.531     2.488
    71   1 H        0.925     0.053     2.283     2.363
    72   1 H        0.860     0.155     1.370     1.833

Wiberg/Mayer (AO) data.
largest (>0.10) Wiberg bond orders for each atom

     #   Z sym  total        # sym  WBO       # sym  WBO       # sym  WBO
 ---------------------------------------------------------------------------
     1   7 N    3.035 --     2 C    1.953    72 H    0.943
     2   6 C    3.926 --     1 N    1.953     3 C    0.994    47 H    0.903
     3   6 C    3.979 --     2 C    0.994     4 C    0.967    14 C    0.957
                            31 C    0.945
     4   6 C    3.965 --    13 C    1.663     5 C    1.204     3 C    0.967
     5   6 C    3.811 --     6 C    1.423     4 C    1.204    34 H    0.959
     6   6 C    3.897 --     5 C    1.423     9 C    1.232     7 O    1.091
     7   8 O    2.254 --     6 C    1.091     8 C    0.976
     8   6 C    3.933 --    36 H    0.977     7 O    0.976    37 H    0.975
                            35 H    0.975
     9   6 C    3.769 --     6 C    1.232    10 O    1.174    12 C    1.018
                            11 C    0.228
    10   8 O    2.563 --    11 C    1.276     9 C    1.174
    11   6 C    3.587 --    10 O    1.276    40 H    0.969    39 H    0.969
                             9 C    0.228
    12   6 C    3.987 --    13 C    1.033     9 C    1.018    38 H    0.930
                            41 H    0.930
    13   6 C    3.843 --     4 C    1.663    12 C    1.033    42 H    0.962
    14   6 C    3.974 --    15 C    0.983    44 H    0.972    43 H    0.968
                             3 C    0.957
    15   6 C    3.987 --    16 C    1.058    14 C    0.983    45 H    0.961
                            46 H    0.929
    16   6 C    3.560 --    17 N    1.380    15 C    1.058    48 H    0.958
    17   7 N    3.457 --    16 C    1.380    30 C    1.000    18 C    0.989
    18   6 C    3.957 --    17 N    0.989    50 H    0.968    19 C    0.967
                            49 H    0.964
    19   6 C    3.976 --    20 C    1.007    51 H    0.972    52 H    0.972
                            18 C    0.967
    20   6 C    3.949 --    21 C    1.414    29 C    1.378    19 C    1.007
    21   6 C    3.955 --    22 C    1.414    20 C    1.414    53 H    0.968
    22   6 C    3.963 --    21 C    1.414    23 C    1.387    54 H    0.963
    23   6 C    3.901 --    22 C    1.387    26 C    1.224    24 O    1.106
    24   8 O    2.255 --    23 C    1.106    25 C    0.977
    25   6 C    3.930 --    57 H    0.977    24 O    0.977    55 H    0.973
                            56 H    0.973
    26   6 C    3.904 --    29 C    1.398    23 C    1.224    27 O    1.099
    27   8 O    2.254 --    26 C    1.099    28 C    0.980
    28   6 C    3.934 --    27 O    0.980    58 H    0.977    59 H    0.974
                            60 H    0.974
    29   6 C    3.962 --    26 C    1.398    20 C    1.378    61 H    0.963
    30   6 C    3.961 --    17 N    1.000    64 H    0.978    62 H    0.967
                            63 H    0.964
    31   6 C    3.977 --    33 C    1.009    32 C    1.009    65 H    0.961
                             3 C    0.945
    32   6 C    3.983 --    31 C    1.009    67 H    0.983    68 H    0.982
                            66 H    0.975
    33   6 C    3.985 --    31 C    1.009    70 H    0.984    71 H    0.981
                            69 H    0.977
    34   1 H    0.996 --     5 C    0.959
    35   1 H    0.995 --     8 C    0.975
    36   1 H    0.993 --     8 C    0.977
    37   1 H    0.995 --     8 C    0.975
    38   1 H    0.972 --    12 C    0.930
    39   1 H    0.992 --    11 C    0.969
    40   1 H    0.997 --    11 C    0.969
    41   1 H    0.972 --    12 C    0.930
    42   1 H    0.998 --    13 C    0.962
    43   1 H    0.995 --    14 C    0.968
    44   1 H    0.996 --    14 C    0.972
    45   1 H    0.995 --    15 C    0.961
    46   1 H    0.969 --    15 C    0.929
    47   1 H    0.989 --     2 C    0.903
    48   1 H    0.995 --    16 C    0.958
    49   1 H    0.991 --    18 C    0.964
    50   1 H    0.995 --    18 C    0.968
    51   1 H    0.996 --    19 C    0.972
    52   1 H    0.996 --    19 C    0.972
    53   1 H    0.998 --    21 C    0.968
    54   1 H    0.995 --    22 C    0.963
    55   1 H    0.993 --    25 C    0.973
    56   1 H    0.993 --    25 C    0.973
    57   1 H    0.993 --    25 C    0.977
    58   1 H    0.993 --    28 C    0.977
    59   1 H    0.994 --    28 C    0.974
    60   1 H    0.994 --    28 C    0.974
    61   1 H    0.997 --    29 C    0.963
    62   1 H    0.984 --    30 C    0.967
    63   1 H    0.988 --    30 C    0.964
    64   1 H    0.994 --    30 C    0.978
    65   1 H    0.994 --    31 C    0.961
    66   1 H    0.992 --    32 C    0.975
    67   1 H    0.998 --    32 C    0.983
    68   1 H    0.995 --    32 C    0.982
    69   1 H    0.994 --    33 C    0.977
    70   1 H    0.998 --    33 C    0.984
    71   1 H    0.995 --    33 C    0.981
    72   1 H    0.972 --     1 N    0.943
 ---------------------------------------------------------------------------

molecular dipole:
                 x           y           z       tot (Debye)
 q only:       -0.274      -0.679      -0.703
   full:        0.006      -0.808      -0.860       3.000

           -------------------------------------------------
          | TOTAL ENERGY              -99.338208548993 Eh   |
          | GRADIENT NORM               0.007314652707 Eh/α |
          | HOMO-LUMO GAP               1.183622462524 eV   |
           -------------------------------------------------

 * finished run on 2024/04/06 at 11:16:23.307
