   * xtb version 6.6.1 (8d0f1dd) compiled by 'conda@1efc2f54142f' on 2023-08-01
          program call               : xtb xtbopt.xyz --opt crude --input .xc2 --gfn2

   ID    Z sym.   atoms
    1    6 C      1, 3, 5-7, 10, 11, 14
    2    7 N      2, 4, 9, 13
    3    8 O      8, 12
    4    1 H      15-25
########################################################################
[WARNING] Please study the warnings concerning your input carefully
-1- readin_getIntValue: could not parse ''
########################################################################

          :  Hamiltonian                  GFN2-xTB          :
 * total energy  :   -40.3044079 Eh     change       -0.7105427E-13 Eh
 * total energy  :   -42.1291708 Eh     change       -0.1824763E+01 Eh
 * total energy  :   -42.1536424 Eh     change       -0.2447152E-01 Eh
 * total energy  :   -42.1554679 Eh     change       -0.1825519E-02 Eh
 * total energy  :   -42.1563141 Eh     change       -0.8462184E-03 Eh
 * total energy  :   -42.1570936 Eh     change       -0.7795285E-03 Eh
 * total energy  :   -42.1589096 Eh     change       -0.1815997E-02 Eh
 * total energy  :   -42.1603443 Eh     change       -0.1434730E-02 Eh
 * total energy  :   -42.1611070 Eh     change       -0.7626062E-03 Eh
 * total energy  :   -42.1615895 Eh     change       -0.4825995E-03 Eh
 * total energy  :   -42.1619743 Eh     change       -0.3847029E-03 Eh
 * total energy  :   -42.1624542 Eh     change       -0.4799442E-03 Eh
 * total energy  :   -42.1628505 Eh     change       -0.3962880E-03 Eh
 * total energy  :   -42.1631107 Eh     change       -0.2601735E-03 Eh
   *** GEOMETRY OPTIMIZATION CONVERGED AFTER 14 ITERATIONS ***

 final structure:
================
25
 xtb: 6.6.1 (8d0f1dd)
C            3.22932423022458        1.08763517472288       -0.08386726306957
N            2.29868761596750       -0.00515100969280       -0.03682456721160
C            2.56952612483274       -1.30580923731975       -0.02801654104397
N            1.41636968452173       -2.01957565875986        0.02387525495879
C            0.38185140488824       -1.13908124614183        0.05102349892522
C            0.92970695271788        0.14844471762279        0.01073276203864
C            0.12951984493349        1.30228937660832       -0.01618691497018
O           -1.53746542299929        3.26705146010231       -0.58523518077454
N           -1.17949164243716        1.02597201922208        0.03974625913923
C           -2.10431535325913        2.18640329277609        0.03031849059481
C           -1.80230820800211       -0.22269026854406        0.10601529389269
O           -2.99164723424539       -0.35835413228933        0.15942310058942
N           -0.94307825454743       -1.34232143451558        0.09659529979306
C           -1.52393426000152       -2.67097485069449        0.10966234984559
H            3.63196427357174        1.29105717080409        0.91032598825285
H            4.05411351236721        0.85816705320615       -0.75724942367148
H            2.69822718756330        1.97162759841372       -0.43261469065279
H            3.54909361537228       -1.74055625580714       -0.05702159266080
H           -2.37163496426876        2.39574998850803        1.08344963937899
H           -0.56955541844627        3.21397692251640       -0.47136234339918
H           -3.01812500717918        1.89367982262781       -0.50060543030273
H           -1.22717979917742       -3.20777746456118        1.01098733964056
H           -1.21819936426319       -3.22641297655191       -0.77726157879118
H           -2.60719851517064       -2.55607421993737        0.10426098293815
H            1.36618051113691       -3.02903730071438        0.04100088446106

          :  Hamiltonian                  GFN2-xTB          :
         :: total energy             -42.163110658846 Eh    ::
         :: gradient norm              0.007478794609 Eh/a0 ::
         :: HOMO-LUMO gap              1.873034590965 eV    ::
         :: SCC energy               -42.667843742779 Eh    ::
         :: -> dispersion             -0.022228060458 Eh    ::
         :: repulsion energy           0.504625595705 Eh    ::

    * Orbital Energies and Occupations

         #    Occupation            Energy/Eh            Energy/eV
      -------------------------------------------------------------
         1        2.0000           -0.9085264             -24.7223
       ...           ...                  ...                  ...
        25        2.0000           -0.6702389             -18.2381
        26        2.0000           -0.6605737             -17.9751
        27        1.9999           -0.6441053             -17.5270
        28        1.9999           -0.6384459             -17.3730
        29        1.9999           -0.6338226             -17.2472
        30        1.9998           -0.6271390             -17.0653
        31        1.9997           -0.6218761             -16.9221
        32        1.9996           -0.6156250             -16.7520
        33        1.9990           -0.5996255             -16.3166
        34        1.9969           -0.5824116             -15.8482
        35        1.9876           -0.5602092             -15.2441
        36        1.9490           -0.5375331             -14.6270
        37        1.8166           -0.5161522             -14.0452 (HOMO)
        38        0.2272           -0.4473195             -12.1722 (LUMO)
        39        0.0220           -0.4086191             -11.1191
        40        0.0029           -0.3761983             -10.2369
        41        0.0000           -0.2890154              -7.8645
        42                         -0.2062207              -5.6116
        43                         -0.1954359              -5.3181
        44                         -0.1403151              -3.8182
        45                         -0.1289504              -3.5089
        46                         -0.0779161              -2.1202
        47                         -0.0553748              -1.5068
        48                         -0.0456958              -1.2434
       ...                                ...                  ...
        67                          0.5347571              14.5515
      -------------------------------------------------------------
                  HL-Gap            0.0688328 Eh            1.8730 eV

     #   Z          covCN         q      C6AA      α(0)
     1   6 C        3.692    -0.089    22.395     6.772
     2   7 N        2.827     0.067    20.069     6.653
     3   6 C        3.050     0.052    26.793     8.489
     4   7 N        2.784    -0.062    22.444     7.036
     5   6 C        3.045     0.115    25.436     8.272
     6   6 C        3.123     0.022    27.342     8.563
     7   6 C        1.921    -0.130    34.733     9.518
     8   8 O        1.657    -0.384    20.539     6.118
     9   7 N        2.759    -0.037    21.953     6.959
    10   6 C        3.631     0.134    18.779     6.239
    11   6 C        2.723     0.312    21.693     7.625
    12   8 O        0.859    -0.366    21.017     6.147
    13   7 N        2.739    -0.045    22.114     6.984
    14   6 C        3.697    -0.071    22.030     6.714
    15   1 H        0.924     0.109     1.706     2.042
    16   1 H        0.925     0.104     1.753     2.071
    17   1 H        0.925     0.120     1.616     1.988
    18   1 H        0.926     0.118     1.627     1.995
    19   1 H        0.922     0.080     1.984     2.203
    20   1 H        0.804     0.330     0.637     1.254
    21   1 H        0.924     0.107     1.720     2.051
    22   1 H        0.924     0.083     1.946     2.182
    23   1 H        0.924     0.082     1.961     2.190
    24   1 H        0.925     0.125     1.570     1.959
    25   1 H        0.860     0.225     0.989     1.558

Wiberg/Mayer (AO) data.
largest (>0.10) Wiberg bond orders for each atom

     #   Z sym  total        # sym  WBO       # sym  WBO       # sym  WBO
 ---------------------------------------------------------------------------
     1   6 C    3.925 --     2 N    0.990    16 H    0.968    17 H    0.968
                            15 H    0.955
     2   7 N    3.648 --     3 C    1.388     6 C    1.133     1 C    0.990
     3   6 C    3.810 --     2 N    1.388     4 N    1.257    18 H    0.954
     4   7 N    3.586 --     3 C    1.257     5 C    1.202    25 H    0.919
     5   6 C    3.908 --     6 C    1.281    13 N    1.230     4 N    1.202
     6   6 C    3.901 --     5 C    1.281     7 C    1.242     2 N    1.133
     7   6 C    2.827 --     9 N    1.348     6 C    1.242
     8   8 O    1.985 --    10 C    1.061    20 H    0.839
     9   7 N    3.600 --     7 C    1.348    11 C    1.078    10 C    0.930
                            12 O    0.116
    10   6 C    3.911 --     8 O    1.061    21 H    0.944     9 N    0.930
                            19 H    0.929
    11   6 C    3.940 --    12 O    1.712     9 N    1.078    13 N    1.050
    12   8 O    2.051 --    11 C    1.712    13 N    0.133     9 N    0.116
    13   7 N    3.564 --     5 C    1.230    11 C    1.050    14 C    0.974
                            12 O    0.133
    14   6 C    3.925 --    13 N    0.974    23 H    0.970    22 H    0.970
                            24 H    0.965
    15   1 H    0.983 --     1 C    0.955
    16   1 H    0.987 --     1 C    0.968
    17   1 H    0.985 --     1 C    0.968
    18   1 H    0.985 --     3 C    0.954
    19   1 H    0.973 --    10 C    0.929
    20   1 H    0.890 --     8 O    0.839
    21   1 H    0.979 --    10 C    0.944
    22   1 H    0.991 --    14 C    0.970
    23   1 H    0.991 --    14 C    0.970
    24   1 H    0.984 --    14 C    0.965
    25   1 H    0.949 --     4 N    0.919
 ---------------------------------------------------------------------------

molecular dipole:
                 x           y           z       tot (Debye)
 q only:        3.078      -1.589       0.155
   full:        3.367      -2.539       0.303      10.746

           -------------------------------------------------
          | TOTAL ENERGY              -42.163110658846 Eh   |
          | GRADIENT NORM               0.007478794609 Eh/α |
          | HOMO-LUMO GAP               1.873034590965 eV   |
           -------------------------------------------------

 * finished run on 2024/06/05 at 19:58:11.682
