   * xtb version 6.6.1 (8d0f1dd) compiled by 'conda@1efc2f54142f' on 2023-08-01
          program call               : xtb struc.xyz --opt loose --input .xc1 --gfn2

   ID    Z sym.   atoms
    1    6 C      1, 3, 5-7, 10, 11, 14
    2    7 N      2, 4, 9, 13
    3    8 O      8, 12
    4    1 H      15-25
constraining bond 3 15 to    5.1400000 Å, actual value:    2.8727362 Å

          :  Hamiltonian                  GFN2-xTB          :
 * total energy  :   -33.0693573 Eh     change       -0.6650680E-10 Eh
 * total energy  :   -36.8868172 Eh     change       -0.3817460E+01 Eh
 * total energy  :   -39.6670343 Eh     change       -0.2780217E+01 Eh
 * total energy  :   -41.2367984 Eh     change       -0.1569764E+01 Eh
 * total energy  :   -41.8233756 Eh     change       -0.5865771E+00 Eh
 * total energy  :   -41.9043881 Eh     change       -0.8101257E-01 Eh
 * total energy  :   -41.9185025 Eh     change       -0.1411442E-01 Eh
 * total energy  :   -41.9372479 Eh     change       -0.1874533E-01 Eh
 * total energy  :   -41.9511898 Eh     change       -0.1394196E-01 Eh
 * total energy  :   -41.9581096 Eh     change       -0.6919730E-02 Eh
 * total energy  :   -42.1022237 Eh     change       -0.1313470E-01 Eh
 * total energy  :   -42.1049393 Eh     change       -0.2715678E-02 Eh
 * total energy  :   -42.1069670 Eh     change       -0.2027628E-02 Eh
 * total energy  :   -42.1080362 Eh     change       -0.1069280E-02 Eh
 * total energy  :   -42.1082443 Eh     change       -0.2080297E-03 Eh
 * total energy  :   -42.1083811 Eh     change       -0.1368155E-03 Eh
 * total energy  :   -42.1084604 Eh     change       -0.7932162E-04 Eh
 * total energy  :   -42.1085069 Eh     change       -0.4645311E-04 Eh
 * total energy  :   -42.1085419 Eh     change       -0.3506508E-04 Eh
   *** GEOMETRY OPTIMIZATION CONVERGED AFTER 35 ITERATIONS ***

 final structure:
================
25
 xtb: 6.6.1 (8d0f1dd)
C            3.17892801995502        0.89417471515356       -0.22374619745753
N            2.27857974595971       -0.08090612872115       -0.16879000569925
C            2.49672920573944       -1.41650326081710       -0.18404384747041
N            1.31006520266074       -2.08002249618305       -0.12427520099933
C            0.31087671468400       -1.15991578437462       -0.06554911956405
C            0.89756303441845        0.09413571600567       -0.08956060846540
C            0.11597573485721        1.30881708173250       -0.04166609411276
O            0.55659102924294        2.43363855355916       -0.04251847767256
N           -1.25062140200871        1.02756789145291        0.01109441823779
C           -2.16773688998994        2.15806031874505        0.04502102033337
C           -1.86242303167145       -0.21198136105347        0.02607548160912
O           -3.05364910018619       -0.34089542179875        0.06464286605749
N           -1.01834885789907       -1.34534318211395       -0.00372349176224
C           -1.61894385171965       -2.66452279680545        0.01100842539410
H            3.81676116288406        3.26828635602817        1.46912377551041
H            4.22300802042109        0.65050481215536       -0.28182309962153
H            2.83154544914018        1.91211522590003       -0.21517667141384
H            3.45650704041988       -1.88446329390328       -0.24657117636943
H           -1.57913712284430        3.07195641666448        0.06859942899568
H           -2.80673742578976        2.14276110456213       -0.83831330147177
H           -2.80389363806232        2.09150188168591        0.92740838864611
H           -1.30463227529395       -3.21914797184062        0.89572738772840
H           -1.35373574556508       -3.21550000881172       -0.89204761666237
H           -2.69993256300329       -2.53184638465542        0.04118444256191
H            1.20709305775095       -3.08423344096631       -0.11090910843191

          :  Hamiltonian                  GFN2-xTB          :
         :: total energy             -42.108541926317 Eh    ::
         :: gradient norm              0.002745760257 Eh/a0 ::
         :: HOMO-LUMO gap              0.344062561328 eV    ::
         :: SCC energy               -42.631393566120 Eh    ::
         :: -> dispersion             -0.022835784217 Eh    ::
         :: repulsion energy           0.522744606421 Eh    ::

    * Orbital Energies and Occupations

         #    Occupation            Energy/Eh            Energy/eV
      -------------------------------------------------------------
         1        2.0000           -0.9102382             -24.7688
       ...           ...                  ...                  ...
        25        1.9999           -0.6678180             -18.1723
        26        1.9999           -0.6674597             -18.1625
        27        1.9999           -0.6584781             -17.9181
        28        1.9996           -0.6367653             -17.3273
        29        1.9994           -0.6321700             -17.2022
        30        1.9992           -0.6265950             -17.0505
        31        1.9986           -0.6188479             -16.8397
        32        1.9956           -0.6003420             -16.3361
        33        1.9852           -0.5810959             -15.8124
        34        1.9577           -0.5642828             -15.3549
        35        1.9520           -0.5622588             -15.2998
        36        1.9455           -0.5601963             -15.2437
        37        1.2750           -0.5125138             -13.9462 (HOMO)
        38        0.8835           -0.4998697             -13.6021 (LUMO)
        39        0.0057           -0.4107479             -11.1770
        40        0.0031           -0.4011651             -10.9163
        41        0.0004           -0.3681877             -10.0189
        42        0.0000           -0.2864906              -7.7958
        43                         -0.2071381              -5.6365
        44                         -0.1858155              -5.0563
        45                         -0.1441785              -3.9233
        46                         -0.1156715              -3.1476
        47                         -0.0827877              -2.2528
        48                         -0.0488495              -1.3293
       ...                                ...                  ...
        67                          0.5540819              15.0773
      -------------------------------------------------------------
                  HL-Gap            0.0126441 Eh            0.3441 eV

     #   Z          covCN         q      C6AA      α(0)
     1   6 C        2.790    -0.071    29.747     8.934
     2   7 N        2.809     0.129    19.038     6.480
     3   6 C        3.037     0.026    27.394     8.585
     4   7 N        2.780    -0.058    22.362     7.023
     5   6 C        3.022     0.119    25.355     8.260
     6   6 C        3.109    -0.039    28.809     8.794
     7   6 C        2.764     0.275    22.356     7.743
     8   8 O        0.858    -0.360    20.906     6.130
     9   7 N        2.746    -0.081    22.816     7.094
    10   6 C        3.710    -0.062    21.835     6.678
    11   6 C        2.727     0.318    21.593     7.607
    12   8 O        0.860    -0.350    20.707     6.101
    13   7 N        2.738    -0.054    22.282     7.011
    14   6 C        3.696    -0.073    22.071     6.720
    15   1 H        0.000     0.064     5.378     4.240
    16   1 H        0.926     0.108     1.710     2.045
    17   1 H        0.926     0.138     1.474     1.899
    18   1 H        0.927     0.121     1.602     1.979
    19   1 H        0.925     0.116     1.649     2.008
    20   1 H        0.924     0.102     1.763     2.076
    21   1 H        0.925     0.103     1.754     2.071
    22   1 H        0.924     0.086     1.921     2.168
    23   1 H        0.924     0.085     1.929     2.172
    24   1 H        0.925     0.129     1.543     1.942
    25   1 H        0.860     0.228     0.974     1.546

Wiberg/Mayer (AO) data.
largest (>0.10) Wiberg bond orders for each atom

     #   Z sym  total        # sym  WBO       # sym  WBO       # sym  WBO
 ---------------------------------------------------------------------------
     1   6 C    3.405 --     2 N    1.331    16 H    0.967    17 H    0.950
     2   7 N    3.764 --     1 C    1.331     3 C    1.247     6 C    1.088
     3   6 C    3.643 --     2 N    1.247     4 N    1.240    18 H    0.955
     4   7 N    3.527 --     3 C    1.240     5 C    1.195    25 H    0.920
     5   6 C    3.938 --     6 C    1.349    13 N    1.217     4 N    1.195
     6   6 C    3.846 --     5 C    1.349     2 N    1.088     7 C    1.085
     7   6 C    3.959 --     8 O    1.684     9 N    1.094     6 C    1.085
     8   8 O    2.019 --     7 C    1.684     9 N    0.139
     9   7 N    3.533 --    11 C    1.126     7 C    1.094    10 C    0.972
                             8 O    0.139    12 O    0.133
    10   6 C    3.899 --     9 N    0.972    19 H    0.966    21 H    0.959
                            20 H    0.957
    11   6 C    3.958 --    12 O    1.706     9 N    1.126    13 N    1.035
    12   8 O    2.047 --    11 C    1.706     9 N    0.133    13 N    0.118
    13   7 N    3.531 --     5 C    1.217    11 C    1.035    14 C    0.975
                            12 O    0.118
    14   6 C    3.919 --    13 N    0.975    23 H    0.968    22 H    0.968
                            24 H    0.963
    15   1 H    0.026
    16   1 H    0.987 --     1 C    0.967
    17   1 H    0.980 --     1 C    0.950
    18   1 H    0.984 --     3 C    0.955
    19   1 H    0.983 --    10 C    0.966
    20   1 H    0.977 --    10 C    0.957
    21   1 H    0.978 --    10 C    0.959
    22   1 H    0.986 --    14 C    0.968
    23   1 H    0.986 --    14 C    0.968
    24   1 H    0.982 --    14 C    0.963
    25   1 H    0.947 --     4 N    0.920
 ---------------------------------------------------------------------------

molecular dipole:
                 x           y           z       tot (Debye)
 q only:        2.319      -1.931      -0.039
   full:        2.585      -2.409      -0.053       8.981

           -------------------------------------------------
          | TOTAL ENERGY              -42.108541926317 Eh   |
          | GRADIENT NORM               0.002745760257 Eh/α |
          | HOMO-LUMO GAP               0.344062561328 eV   |
           -------------------------------------------------

 * finished run on 2024/06/05 at 19:57:56.250
