   * xtb version 6.6.1 (8d0f1dd) compiled by 'conda@1efc2f54142f' on 2023-08-01
          program call               : xtb struc.xyz --opt loose --input .xc1 --gfn2

   ID    Z sym.   atoms
    1    7 N      1, 17
    2    6 C      2-6, 8, 9, 11-16, 18-23, 25, 26, 28-33
    3    8 O      7, 10, 24, 27
    4    1 H      34-72
constraining bond 16 47 to    5.7133300 Å, actual value:    1.7503726 Å

          :  Hamiltonian                  GFN2-xTB          :
 * total energy  :  -102.2083147 Eh     change       -0.4035485E-08 Eh
 * total energy  :  -103.2610105 Eh     change       -0.1052696E+01 Eh
 * total energy  :  -101.3839182 Eh     change        0.1877092E+01 Eh
 * total energy  :  -103.5689240 Eh     change       -0.2185006E+01 Eh
 * total energy  :  -103.6001968 Eh     change       -0.3127275E-01 Eh
 * total energy  :  -103.6213260 Eh     change       -0.2112917E-01 Eh
 * total energy  :  -103.6288928 Eh     change       -0.7566860E-02 Eh
 * total energy  :  -103.6314829 Eh     change       -0.2590042E-02 Eh
 * total energy  :  -103.6326388 Eh     change       -0.1155967E-02 Eh
 * total energy  :  -103.6334432 Eh     change       -0.8044060E-03 Eh
 * total energy  :  -103.6406384 Eh     change       -0.8707006E-04 Eh
 * total energy  :  -103.6407022 Eh     change       -0.6383051E-04 Eh
 * total energy  :  -103.6407701 Eh     change       -0.6795627E-04 Eh
 * total energy  :  -103.6408649 Eh     change       -0.9477375E-04 Eh
 * total energy  :  -103.6409633 Eh     change       -0.9836521E-04 Eh
 * total energy  :  -103.6409039 Eh     change        0.5933871E-04 Eh
 * total energy  :  -103.6407718 Eh     change        0.1321025E-03 Eh
 * total energy  :  -103.6412041 Eh     change       -0.4322960E-03 Eh
 * total energy  :  -103.6412462 Eh     change       -0.4210751E-04 Eh
   *** GEOMETRY OPTIMIZATION CONVERGED AFTER 46 ITERATIONS ***

 final structure:
================
72
 xtb: 6.6.1 (8d0f1dd)
N           -1.68697237496607        3.15044772311754        2.03600643442600
C           -2.30322905684991        2.28313638978526        1.46783058290260
C           -3.18617625771197        1.99934170897600        0.36497451410330
C           -3.64819925826302        0.54835230890157        0.40751086895081
C           -4.49986359958094        0.04674206780476       -0.57495176136418
C           -4.91435060767213       -1.27532496452831       -0.55420028576786
O           -5.73765328861171       -1.84863205875978       -1.45386187762129
C           -6.28716195694232       -1.06542959243433       -2.48735539568677
C           -4.45695578682062       -2.13746785070081        0.48010515476349
O           -4.90325331354121       -3.40637901191351        0.41510314720766
C           -4.52557672259647       -4.31690248579289        1.42165789128456
C           -3.61086765098540       -1.62667277588689        1.45164062104166
C           -3.21487176085361       -0.29812688552295        1.41379007095594
C           -2.40461008932769        2.27481163916507       -0.95447315602141
C           -1.44174339243081        1.15652127062537       -1.34567474217902
C           -0.39010177898430        0.87743583621702       -0.23772110397024
N            0.58827215716988       -0.09706686262047       -0.76527507187495
C            1.95774458308905        0.05611910623727       -0.33000687154387
C            2.94320074932629       -0.36035363023654       -1.43749478512539
C            4.35794311819154       -0.15265437574342       -0.98461002296488
C            4.99575014352390        1.06533722247690       -1.17375785123356
C            6.29731190497820        1.26170689899869       -0.74189636602120
C            6.99366554639688        0.24326147124776       -0.10403364082721
O            8.26144989759296        0.32034846654334        0.34222178150624
C            8.99795962682325        1.50063122982751        0.11992408753939
C            6.34483622491487       -1.00506450348969        0.10841576849337
O            7.08401290229574       -1.93940941003509        0.73864874812661
C            6.53946069089899       -3.22016470982724        0.95123261060821
C            5.04164755113379       -1.17635691058291       -0.33463948770640
C            0.09074796999401       -1.45159824878997       -0.70253105691463
C           -4.43464390354687        2.94422839321610        0.49524079068693
C           -5.16352487944761        2.68245181554279        1.81086976658901
C           -4.08557917458242        4.42163912391289        0.36421581014766
H           -4.84030825592265        0.69476070170897       -1.36600760461973
H           -6.87881599174849       -0.23479951502434       -2.09056931399244
H           -6.93834965060708       -1.73543451827520       -3.04522481376541
H           -5.51096187043331       -0.67858365526693       -3.15533532078465
H           -4.86020001778648       -3.98438970690502        2.40880604452271
H           -5.02013809675198       -5.25277264149507        1.16978785120278
H           -3.44221403843937       -4.47223472248195        1.43529836586797
H           -3.25510752804951       -2.25546654883476        2.25127879636815
H           -2.56293332475716        0.08293033224922        2.18875260498388
H           -3.13639035813097        2.40027301921261       -1.75298685347479
H           -1.85567252770335        3.21091981798023       -0.84949189145307
H           -2.00520708808867        0.24254807781660       -1.53271736206533
H           -0.93332997384863        1.43328307290850       -2.26867145508142
H           -0.70256624515302        0.65069641969410        0.35925389336321
H            0.16894073584273        1.82477132497619       -0.12091165372232
H            2.16472769164910       -0.53363523967083        0.57668536049510
H            2.14040407165848        1.10656050532176       -0.09499640583593
H            2.73605141270459        0.24194737268980       -2.32202803869919
H            2.78782131301745       -1.40801264145613       -1.69427860644188
H            4.47961734235578        1.86994902425666       -1.67453249242984
H            6.76798697249366        2.21637278607532       -0.91130490165120
H            8.55691988729594        2.35322055961430        0.64545615453857
H            9.07474284455952        1.72922776769827       -0.94725817245495
H            9.99116585683359        1.30550662592575        0.51984296972949
H            7.32110951176933       -3.79203110402011        1.44759477728548
H            5.65649598777503       -3.17896747127949        1.59703294639813
H            6.27926356011570       -3.70666237705027        0.00612259370107
H            4.54474710777315       -2.12254646722731       -0.18782174162889
H           -0.73210735694863       -1.57497299752902       -1.40479576672233
H           -0.26856592121475       -1.71675350356023        0.30167810367332
H            0.87741182283697       -2.14610914841763       -0.98063041968728
H           -5.10132222669484        2.67207689970224       -0.32809178968844
H           -4.55647106304941        2.99480986442060        2.65759253547226
H           -5.40212013845029        1.62740904518101        1.92366096294090
H           -6.09256185389638        3.24583781822510        1.83543233588806
H           -3.34811225836964        4.71853695661870        1.10567288177190
H           -3.70427546113414        4.65946689858206       -0.62466175799285
H           -4.98235994019660        5.01408425567422        0.52697568520989
H           -1.10946754691600        3.10741423873440        2.85975116884891

          :  Hamiltonian                  GFN2-xTB          :
         :: total energy            -103.641246245584 Eh    ::
         :: gradient norm              0.002393512536 Eh/a0 ::
         :: HOMO-LUMO gap              1.313230202251 eV    ::
         :: SCC energy              -100.797469778236 Eh    ::
         :: -> dispersion             -0.073592785314 Eh    ::
         :: repulsion energy           1.623165395328 Eh    ::

    * Orbital Energies and Occupations

         #    Occupation            Energy/Eh            Energy/eV
      -------------------------------------------------------------
         1        2.0000           -0.8099034             -22.0386
       ...           ...                  ...                  ...
        78        1.9985           -0.5312042             -14.4548
        79        1.9984           -0.5299814             -14.4215
        80        1.9983           -0.5292730             -14.4023
        81        1.9982           -0.5283148             -14.3762
        82        1.9978           -0.5246890             -14.2775
        83        1.9974           -0.5225169             -14.2184
        84        1.9970           -0.5202375             -14.1564
        85        1.9953           -0.5129902             -13.9592
        86        1.9838           -0.4932426             -13.4218
        87        1.9680           -0.4823897             -13.1265
        88        1.8840           -0.4613014             -12.5527
        89        1.8440           -0.4562662             -12.4156
        90        1.7628           -0.4489209             -12.2158 (HOMO)
        91        0.5215           -0.4006606             -10.9025 (LUMO)
        92        0.0525           -0.3599490              -9.7947
        93        0.0040           -0.3187185              -8.6728
        94        0.0033           -0.3158862              -8.5957
        95        0.0018           -0.3060643              -8.3284
        96        0.0016           -0.3037773              -8.2662
        97        0.0000           -0.1927019              -5.2437
        98        0.0000           -0.1814197              -4.9367
        99                         -0.1128559              -3.0710
       100                         -0.0859116              -2.3378
       101                         -0.0752053              -2.0464
       ...                                ...                  ...
       171                          1.7111657              46.5632
      -------------------------------------------------------------
                  HL-Gap            0.0482603 Eh            1.3132 eV

     #   Z          covCN         q      C6AA      α(0)
     1   7 N        1.772    -0.164    25.304     7.449
     2   6 C        1.922     0.094    28.746     8.659
     3   6 C        3.905     0.028    20.054     6.365
     4   6 C        2.978     0.003    27.953     8.672
     5   6 C        2.919    -0.077    29.933     8.972
     6   6 C        2.863     0.132    25.115     8.215
     7   8 O        1.706    -0.228    17.774     5.692
     8   6 C        3.644     0.027    20.457     6.501
     9   6 C        2.865     0.132    25.120     8.215
    10   8 O        1.706    -0.226    17.750     5.688
    11   6 C        3.646     0.027    20.460     6.501
    12   6 C        2.914    -0.071    29.760     8.946
    13   6 C        2.922    -0.049    29.229     8.866
    14   6 C        3.813    -0.061    21.663     6.625
    15   6 C        3.800    -0.074    21.918     6.666
    16   6 C        3.749    -0.035    21.258     6.576
    17   7 N        2.726    -0.138    23.988     7.274
    18   6 C        3.749     0.005    20.549     6.465
    19   6 C        3.809    -0.072    21.876     6.658
    20   6 C        2.968     0.009    27.820     8.652
    21   6 C        2.922    -0.045    29.127     8.850
    22   6 C        2.913    -0.066    29.649     8.929
    23   6 C        2.864     0.133    25.079     8.209
    24   8 O        1.706    -0.220    17.649     5.672
    25   6 C        3.645     0.025    20.490     6.506
    26   6 C        2.862     0.134    25.071     8.207
    27   8 O        1.706    -0.222    17.690     5.679
    28   6 C        3.645     0.027    20.460     6.501
    29   6 C        2.920    -0.076    29.910     8.968
    30   6 C        3.704    -0.044    21.522     6.633
    31   6 C        3.858    -0.007    20.665     6.465
    32   6 C        3.755    -0.114    22.730     6.798
    33   6 C        3.754    -0.120    22.864     6.818
    34   1 H        0.926     0.052     2.294     2.369
    35   1 H        0.924     0.052     2.293     2.368
    36   1 H        0.925     0.082     1.957     2.188
    37   1 H        0.924     0.050     2.320     2.382
    38   1 H        0.924     0.054     2.269     2.356
    39   1 H        0.925     0.082     1.961     2.190
    40   1 H        0.924     0.050     2.317     2.380
    41   1 H        0.926     0.054     2.273     2.358
    42   1 H        0.925     0.036     2.508     2.476
    43   1 H        0.924     0.065     2.145     2.290
    44   1 H        0.924     0.058     2.219     2.329
    45   1 H        0.925     0.049     2.331     2.387
    46   1 H        0.925     0.061     2.185     2.311
    47   1 H        0.930     0.101     1.773     2.082
    48   1 H        0.922     0.037     2.492     2.469
    49   1 H        0.923     0.031     2.571     2.508
    50   1 H        0.924     0.045     2.380     2.412
    51   1 H        0.925     0.062     2.179     2.308
    52   1 H        0.925     0.053     2.282     2.362
    53   1 H        0.926     0.051     2.307     2.375
    54   1 H        0.926     0.058     2.216     2.328
    55   1 H        0.924     0.055     2.255     2.348
    56   1 H        0.924     0.057     2.236     2.339
    57   1 H        0.925     0.082     1.955     2.187
    58   1 H        0.925     0.082     1.963     2.191
    59   1 H        0.924     0.051     2.310     2.377
    60   1 H        0.924     0.054     2.265     2.354
    61   1 H        0.926     0.051     2.307     2.375
    62   1 H        0.925     0.053     2.278     2.360
    63   1 H        0.923     0.030     2.589     2.517
    64   1 H        0.925     0.058     2.221     2.330
    65   1 H        0.924     0.056     2.252     2.347
    66   1 H        0.925     0.043     2.414     2.430
    67   1 H        0.925     0.044     2.399     2.422
    68   1 H        0.925     0.058     2.225     2.333
    69   1 H        0.925     0.051     2.305     2.374
    70   1 H        0.925     0.047     2.359     2.402
    71   1 H        0.925     0.061     2.189     2.314
    72   1 H        0.860     0.219     1.013     1.577

Wiberg/Mayer (AO) data.
largest (>0.10) Wiberg bond orders for each atom

     #   Z sym  total        # sym  WBO       # sym  WBO       # sym  WBO
 ---------------------------------------------------------------------------
     1   7 N    3.210 --     2 C    2.172    72 H    0.901
     2   6 C    3.368 --     1 N    2.172     3 C    1.071
     3   6 C    3.961 --     2 C    1.071     4 C    0.960    14 C    0.919
                            31 C    0.890
     4   6 C    3.935 --    13 C    1.417     5 C    1.374     3 C    0.960
     5   6 C    3.964 --     6 C    1.398     4 C    1.374    34 H    0.958
     6   6 C    3.908 --     5 C    1.398     9 C    1.222     7 O    1.103
     7   8 O    2.260 --     6 C    1.103     8 C    0.977
     8   6 C    3.931 --     7 O    0.977    36 H    0.977    35 H    0.974
                            37 H    0.973
     9   6 C    3.906 --    12 C    1.390     6 C    1.222    10 O    1.106
    10   8 O    2.259 --     9 C    1.106    11 C    0.977
    11   6 C    3.931 --    39 H    0.977    10 O    0.977    40 H    0.974
                            38 H    0.973
    12   6 C    3.964 --    13 C    1.408     9 C    1.390    41 H    0.963
    13   6 C    3.950 --     4 C    1.417    12 C    1.408    42 H    0.955
    14   6 C    3.968 --    15 C    1.011    44 H    0.973    43 H    0.963
                             3 C    0.919
    15   6 C    3.981 --    14 C    1.011    16 C    0.987    46 H    0.974
                            45 H    0.970
    16   6 C    3.963 --    15 C    0.987    17 N    0.983    48 H    0.970
                            47 H    0.970
    17   7 N    3.078 --    30 C    1.019    18 C    1.009    16 C    0.983
    18   6 C    3.967 --    17 N    1.009    19 C    0.972    50 H    0.970
                            49 H    0.959
    19   6 C    3.979 --    20 C    1.014    18 C    0.972    51 H    0.970
                            52 H    0.967
    20   6 C    3.931 --    21 C    1.394    29 C    1.385    19 C    1.014
    21   6 C    3.932 --    22 C    1.424    20 C    1.394    53 H    0.967
    22   6 C    3.952 --    21 C    1.424    23 C    1.376    54 H    0.963
    23   6 C    3.877 --    22 C    1.376    26 C    1.215    24 O    1.110
    24   8 O    2.245 --    23 C    1.110    25 C    0.976
    25   6 C    3.927 --    57 H    0.977    24 O    0.976    56 H    0.972
                            55 H    0.972
    26   6 C    3.884 --    29 C    1.389    23 C    1.215    27 O    1.106
    27   8 O    2.247 --    26 C    1.106    28 C    0.978
    28   6 C    3.930 --    27 O    0.978    58 H    0.977    59 H    0.973
                            60 H    0.972
    29   6 C    3.953 --    26 C    1.389    20 C    1.385    61 H    0.962
    30   6 C    3.973 --    17 N    1.019    64 H    0.977    62 H    0.975
                            63 H    0.967
    31   6 C    3.958 --    33 C    1.014    32 C    1.011    65 H    0.954
                             3 C    0.890
    32   6 C    3.990 --    31 C    1.011    66 H    0.984    67 H    0.982
                            68 H    0.981
    33   6 C    3.989 --    31 C    1.014    70 H    0.983    69 H    0.980
                            71 H    0.978
    34   1 H    0.996 --     5 C    0.958
    35   1 H    0.994 --     8 C    0.974
    36   1 H    0.993 --     8 C    0.977
    37   1 H    0.994 --     8 C    0.973
    38   1 H    0.993 --    11 C    0.973
    39   1 H    0.993 --    11 C    0.977
    40   1 H    0.993 --    11 C    0.974
    41   1 H    0.995 --    12 C    0.963
    42   1 H    0.998 --    13 C    0.955
    43   1 H    0.992 --    14 C    0.963
    44   1 H    0.995 --    14 C    0.973
    45   1 H    0.997 --    15 C    0.970
    46   1 H    0.995 --    15 C    0.974
    47   1 H    0.983 --    16 C    0.970
    48   1 H    0.998 --    16 C    0.970
    49   1 H    0.981 --    18 C    0.959
    50   1 H    0.997 --    18 C    0.970
    51   1 H    0.993 --    19 C    0.970
    52   1 H    0.995 --    19 C    0.967
    53   1 H    0.996 --    21 C    0.967
    54   1 H    0.995 --    22 C    0.963
    55   1 H    0.990 --    25 C    0.972
    56   1 H    0.990 --    25 C    0.972
    57   1 H    0.992 --    25 C    0.977
    58   1 H    0.993 --    28 C    0.977
    59   1 H    0.992 --    28 C    0.973
    60   1 H    0.991 --    28 C    0.972
    61   1 H    0.996 --    29 C    0.962
    62   1 H    0.991 --    30 C    0.975
    63   1 H    0.981 --    30 C    0.967
    64   1 H    0.996 --    30 C    0.977
    65   1 H    0.992 --    31 C    0.954
    66   1 H    0.997 --    32 C    0.984
    67   1 H    0.998 --    32 C    0.982
    68   1 H    0.995 --    32 C    0.981
    69   1 H    0.997 --    33 C    0.980
    70   1 H    0.997 --    33 C    0.983
    71   1 H    0.994 --    33 C    0.978
    72   1 H    0.925 --     1 N    0.901
 ---------------------------------------------------------------------------

molecular dipole:
                 x           y           z       tot (Debye)
 q only:       -0.335       1.036       0.409
   full:       -0.332       0.991       0.771       3.301

           -------------------------------------------------
          | TOTAL ENERGY             -103.641246245584 Eh   |
          | GRADIENT NORM               0.002393512536 Eh/α |
          | HOMO-LUMO GAP               1.313230202251 eV   |
           -------------------------------------------------

 * finished run on 2024/04/06 at 11:16:39.979
