   * xtb version 6.6.1 (8d0f1dd) compiled by 'conda@1efc2f54142f' on 2023-08-01
          program call               : xtb xtbopt.xyz --opt crude --input .xc2 --gfn2

   ID    Z sym.   atoms
    1    7 N      1, 17
    2    6 C      2-6, 8, 9, 11-16, 18-23, 25, 26, 28-33
    3    8 O      7, 10, 24, 27
    4    1 H      34-72
########################################################################
[WARNING] Please study the warnings concerning your input carefully
-1- readin_getIntValue: could not parse ''
########################################################################

          :  Hamiltonian                  GFN2-xTB          :
 * total energy  :   -99.1731330 Eh     change        0.1705303E-12 Eh
 * total energy  :   -99.3871969 Eh     change       -0.2140640E+00 Eh
 * total energy  :   -99.3894892 Eh     change       -0.2292266E-02 Eh
 * total energy  :   -99.3903977 Eh     change       -0.9085356E-03 Eh
 * total energy  :   -99.3908403 Eh     change       -0.4425486E-03 Eh
 * total energy  :   -99.3910374 Eh     change       -0.1971290E-03 Eh
   *** GEOMETRY OPTIMIZATION CONVERGED AFTER 6 ITERATIONS ***

 final structure:
================
72
 xtb: 6.6.1 (8d0f1dd)
N           -1.68923192908777        3.14793604882472        2.03515478809516
C           -2.28924052481186        2.27456976877736        1.45945289013154
C           -3.18286495491669        1.99343859073590        0.36446884990104
C           -3.64942430676255        0.54441972257012        0.41010453576841
C           -4.48834842427855        0.03984306268306       -0.58176802420805
C           -4.90958449960076       -1.28001253865423       -0.55903049755352
O           -5.73005799136279       -1.85185441755968       -1.46254269684203
C           -6.27865081660249       -1.06482976481514       -2.49341520639108
C           -4.46435475011609       -2.14076271698610        0.48156390170563
O           -4.90889860475511       -3.41001416830558        0.41220654270732
C           -4.53674439483511       -4.32189144037860        1.41949487763966
C           -3.63507063164940       -1.62645280174867        1.46573709180207
C           -3.24133242363272       -0.29708881668396        1.43173963796257
C           -2.40677945586222        2.27278522591623       -0.95705199333467
C           -1.44555502297713        1.15798339246804       -1.36235710687331
C           -0.34675579076392        0.91190082443220       -0.32200135198388
N            0.59362527548050       -0.08526749648311       -0.78105484913165
C            1.96431340428110        0.05282548570232       -0.33687382163527
C            2.94919099774978       -0.35723844244812       -1.44763558151466
C            4.36459163565809       -0.15267178057464       -0.99418690602052
C            5.00347056561257        1.06437646138865       -1.18515394378683
C            6.30478140235581        1.26190259809172       -0.75235802263757
C            6.99851582561106        0.24383530578227       -0.11191235419809
O            8.26444679975122        0.31874728437783        0.33964924403948
C            9.00194470202671        1.50015739470935        0.12695186487512
C            6.34957643086764       -1.00500073213878        0.09993653302593
O            7.09197885114327       -1.93639125333566        0.73028704907209
C            6.54929535695190       -3.21619547819216        0.95251037273722
C            5.04684203681968       -1.17723022114021       -0.34317015864737
C            0.08619097891896       -1.43372759917567       -0.70255785809826
C           -4.43073465723662        2.93953005509178        0.49625165079801
C           -5.15823584850495        2.68161194993649        1.81286397367030
C           -4.08160252457322        4.41633552855032        0.36058566827010
H           -4.81500612181341        0.68526843758538       -1.38076936003846
H           -6.87254815262621       -0.23727277750665       -2.09314092509458
H           -6.92764394316808       -1.73311466423801       -3.05587342501111
H           -5.50216085695625       -0.67284517887107       -3.15802451417973
H           -4.87849465379132       -3.99245568704287        2.40530262578569
H           -5.02831873219749       -5.25797108706676        1.16232526397169
H           -3.45317970965658       -4.47560000838926        1.44009855203002
H           -3.29217850461800       -2.25273513291456        2.27302261502425
H           -2.61318792036310        0.08692875913697        2.22504745859470
H           -3.14265437609840        2.40518466674876       -1.75071946893605
H           -1.85498898064421        3.20687305085896       -0.84907669273140
H           -2.00592042507593        0.23873059170928       -1.53070126313317
H           -0.96677312614243        1.43528941420324       -2.30280979620563
H           -0.81980266435072        0.59419275629230        0.63127053349344
H            0.19231904971337        1.85015975878068       -0.16255334857564
H            2.16011421239579       -0.55267972518760        0.56141009849386
H            2.15574230138082        1.09757432513660       -0.08435509687027
H            2.74349385270838        0.25110553907650       -2.32855526332336
H            2.79260719628434       -1.40321388048064       -1.71100664634245
H            4.48705268556386        1.86754719576704       -1.68805898561527
H            6.77602005655784        2.21604866303214       -0.92307214455126
H            8.55287109987454        2.35199888811919        0.64684289645087
H            9.09202653407552        1.72876252685845       -0.93920699895289
H            9.99017625299814        1.30611751326438        0.53961946689568
H            7.33335975940585       -3.78390913250893        1.44988788091020
H            5.66844816484538       -3.17147819771938        1.60082847109298
H            6.28659534201505       -3.70902111579788        0.01144010248107
H            4.54874352103502       -2.12276340729331       -0.19626964806346
H           -0.77380603679857       -1.54766883284364       -1.36058378953909
H           -0.22625514067048       -1.69501555152836        0.32038903253767
H            0.85109514697360       -2.13623701427031       -1.02168286203735
H           -5.09809612431686        2.66458449804322       -0.32573295023330
H           -4.54859805406706        2.99197765833285        2.65833401209524
H           -5.40105834240735        1.62765550259081        1.92634829119729
H           -6.08492817490173        3.24882949816393        1.83812382724647
H           -3.34896043695633        4.71644154374708        1.10546549642086
H           -3.69409038971370        4.65017539507075       -0.62679101715140
H           -4.97980952782305        5.00894174090800        0.51462984565033
H           -1.09098589456539        3.11216396131759        2.84397346944920

          :  Hamiltonian                  GFN2-xTB          :
         :: total energy             -99.391037410048 Eh    ::
         :: gradient norm              0.005327624121 Eh/a0 ::
         :: HOMO-LUMO gap              1.329945271061 eV    ::
         :: SCC energy              -100.772456156669 Eh    ::
         :: -> dispersion             -0.073667245983 Eh    ::
         :: repulsion energy           1.380230729767 Eh    ::

    * Orbital Energies and Occupations

         #    Occupation            Energy/Eh            Energy/eV
      -------------------------------------------------------------
         1        2.0000           -0.8098058             -22.0359
       ...           ...                  ...                  ...
        78        1.9985           -0.5307727             -14.4431
        79        1.9984           -0.5297455             -14.4151
        80        1.9983           -0.5291879             -14.3999
        81        1.9982           -0.5279896             -14.3673
        82        1.9978           -0.5249382             -14.2843
        83        1.9974           -0.5221479             -14.2084
        84        1.9971           -0.5204715             -14.1628
        85        1.9953           -0.5130765             -13.9615
        86        1.9835           -0.4929772             -13.4146
        87        1.9682           -0.4824773             -13.1289
        88        1.8856           -0.4615238             -12.5587
        89        1.8520           -0.4571700             -12.4402
        90        1.7659           -0.4491532             -12.2221 (HOMO)
        91        0.5124           -0.4002786             -10.8921 (LUMO)
        92        0.0494           -0.3589373              -9.7672
        93        0.0039           -0.3185398              -8.6679
        94        0.0033           -0.3157600              -8.5923
        95        0.0018           -0.3061001              -8.3294
        96        0.0016           -0.3038429              -8.2680
        97        0.0000           -0.1926929              -5.2434
        98        0.0000           -0.1813557              -4.9349
        99                         -0.1000355              -2.7221
       100                         -0.0849915              -2.3127
       101                         -0.0748581              -2.0370
       ...                                ...                  ...
       171                          0.6933752              18.8677
      -------------------------------------------------------------
                  HL-Gap            0.0488746 Eh            1.3299 eV

     #   Z          covCN         q      C6AA      α(0)
     1   7 N        1.772    -0.164    25.303     7.449
     2   6 C        1.922     0.097    28.675     8.648
     3   6 C        3.905     0.028    20.043     6.364
     4   6 C        2.977     0.004    27.935     8.670
     5   6 C        2.919    -0.078    29.938     8.973
     6   6 C        2.863     0.132    25.118     8.215
     7   8 O        1.706    -0.228    17.774     5.692
     8   6 C        3.644     0.027    20.455     6.501
     9   6 C        2.865     0.132    25.120     8.215
    10   8 O        1.706    -0.226    17.745     5.687
    11   6 C        3.646     0.026    20.462     6.501
    12   6 C        2.914    -0.071    29.762     8.946
    13   6 C        2.922    -0.048    29.181     8.859
    14   6 C        3.813    -0.060    21.648     6.622
    15   6 C        3.802    -0.071    21.859     6.656
    16   6 C        3.749     0.001    20.633     6.478
    17   7 N        2.728    -0.122    23.649     7.223
    18   6 C        3.752     0.003    20.586     6.470
    19   6 C        3.809    -0.072    21.872     6.657
    20   6 C        2.968     0.009    27.822     8.652
    21   6 C        2.922    -0.045    29.128     8.851
    22   6 C        2.913    -0.066    29.649     8.929
    23   6 C        2.864     0.134    25.078     8.209
    24   8 O        1.706    -0.220    17.647     5.672
    25   6 C        3.645     0.025    20.491     6.506
    26   6 C        2.862     0.134    25.069     8.207
    27   8 O        1.706    -0.222    17.686     5.678
    28   6 C        3.645     0.027    20.462     6.501
    29   6 C        2.920    -0.076    29.910     8.968
    30   6 C        3.706    -0.045    21.527     6.632
    31   6 C        3.857    -0.007    20.669     6.466
    32   6 C        3.755    -0.114    22.734     6.799
    33   6 C        3.754    -0.120    22.866     6.818
    34   1 H        0.926     0.052     2.295     2.369
    35   1 H        0.924     0.052     2.293     2.368
    36   1 H        0.925     0.082     1.957     2.188
    37   1 H        0.924     0.050     2.322     2.383
    38   1 H        0.924     0.054     2.268     2.355
    39   1 H        0.925     0.082     1.960     2.189
    40   1 H        0.924     0.050     2.315     2.379
    41   1 H        0.926     0.054     2.268     2.355
    42   1 H        0.925     0.036     2.501     2.473
    43   1 H        0.924     0.065     2.143     2.289
    44   1 H        0.924     0.058     2.224     2.332
    45   1 H        0.925     0.051     2.304     2.374
    46   1 H        0.924     0.063     2.168     2.302
    47   1 H        0.922     0.026     2.649     2.545
    48   1 H        0.924     0.044     2.399     2.422
    49   1 H        0.923     0.033     2.540     2.492
    50   1 H        0.924     0.045     2.378     2.412
    51   1 H        0.925     0.061     2.184     2.311
    52   1 H        0.925     0.053     2.278     2.361
    53   1 H        0.926     0.051     2.310     2.377
    54   1 H        0.926     0.059     2.216     2.328
    55   1 H        0.924     0.055     2.256     2.349
    56   1 H        0.924     0.057     2.236     2.338
    57   1 H        0.925     0.082     1.955     2.186
    58   1 H        0.925     0.082     1.962     2.191
    59   1 H        0.924     0.051     2.308     2.376
    60   1 H        0.924     0.055     2.265     2.353
    61   1 H        0.926     0.051     2.305     2.374
    62   1 H        0.925     0.054     2.275     2.359
    63   1 H        0.923     0.030     2.587     2.515
    64   1 H        0.925     0.060     2.204     2.322
    65   1 H        0.924     0.055     2.254     2.348
    66   1 H        0.925     0.043     2.408     2.427
    67   1 H        0.925     0.044     2.399     2.422
    68   1 H        0.925     0.058     2.222     2.331
    69   1 H        0.925     0.052     2.300     2.372
    70   1 H        0.925     0.047     2.362     2.404
    71   1 H        0.925     0.061     2.186     2.312
    72   1 H        0.860     0.220     1.011     1.575

Wiberg/Mayer (AO) data.
largest (>0.10) Wiberg bond orders for each atom

     #   Z sym  total        # sym  WBO       # sym  WBO       # sym  WBO
 ---------------------------------------------------------------------------
     1   7 N    3.215 --     2 C    2.171    72 H    0.901
     2   6 C    3.380 --     1 N    2.171     3 C    1.070
     3   6 C    3.961 --     2 C    1.070     4 C    0.961    14 C    0.919
                            31 C    0.890
     4   6 C    3.935 --    13 C    1.415     5 C    1.375     3 C    0.961
     5   6 C    3.964 --     6 C    1.398     4 C    1.375    34 H    0.958
     6   6 C    3.908 --     5 C    1.398     9 C    1.222     7 O    1.103
     7   8 O    2.259 --     6 C    1.103     8 C    0.977
     8   6 C    3.931 --     7 O    0.977    36 H    0.977    35 H    0.974
                            37 H    0.973
     9   6 C    3.905 --    12 C    1.390     6 C    1.222    10 O    1.106
    10   8 O    2.259 --     9 C    1.106    11 C    0.977
    11   6 C    3.930 --    39 H    0.977    10 O    0.977    40 H    0.974
                            38 H    0.973
    12   6 C    3.964 --    13 C    1.407     9 C    1.390    41 H    0.963
    13   6 C    3.950 --     4 C    1.415    12 C    1.407    42 H    0.954
    14   6 C    3.970 --    15 C    1.010    44 H    0.973    43 H    0.964
                             3 C    0.919
    15   6 C    3.984 --    14 C    1.010    16 C    0.996    46 H    0.970
                            45 H    0.968
    16   6 C    3.973 --    17 N    1.009    15 C    0.996    48 H    0.970
                            47 H    0.940
    17   7 N    3.111 --    30 C    1.018    16 C    1.009    18 C    1.005
    18   6 C    3.967 --    17 N    1.005    19 C    0.972    50 H    0.970
                            49 H    0.960
    19   6 C    3.979 --    20 C    1.014    18 C    0.972    51 H    0.970
                            52 H    0.967
    20   6 C    3.931 --    21 C    1.395    29 C    1.384    19 C    1.014
    21   6 C    3.932 --    22 C    1.423    20 C    1.395    53 H    0.967
    22   6 C    3.952 --    21 C    1.423    23 C    1.377    54 H    0.963
    23   6 C    3.877 --    22 C    1.377    26 C    1.214    24 O    1.111
    24   8 O    2.245 --    23 C    1.111    25 C    0.976
    25   6 C    3.927 --    57 H    0.977    24 O    0.976    56 H    0.972
                            55 H    0.972
    26   6 C    3.884 --    29 C    1.390    23 C    1.214    27 O    1.106
    27   8 O    2.247 --    26 C    1.106    28 C    0.978
    28   6 C    3.930 --    27 O    0.978    58 H    0.977    59 H    0.973
                            60 H    0.972
    29   6 C    3.953 --    26 C    1.390    20 C    1.384    61 H    0.962
    30   6 C    3.973 --    17 N    1.018    64 H    0.977    62 H    0.975
                            63 H    0.965
    31   6 C    3.957 --    33 C    1.014    32 C    1.011    65 H    0.954
                             3 C    0.890
    32   6 C    3.990 --    31 C    1.011    66 H    0.984    67 H    0.982
                            68 H    0.981
    33   6 C    3.989 --    31 C    1.014    70 H    0.983    69 H    0.980
                            71 H    0.978
    34   1 H    0.996 --     5 C    0.958
    35   1 H    0.994 --     8 C    0.974
    36   1 H    0.993 --     8 C    0.977
    37   1 H    0.994 --     8 C    0.973
    38   1 H    0.993 --    11 C    0.973
    39   1 H    0.993 --    11 C    0.977
    40   1 H    0.993 --    11 C    0.974
    41   1 H    0.995 --    12 C    0.963
    42   1 H    0.998 --    13 C    0.954
    43   1 H    0.992 --    14 C    0.964
    44   1 H    0.996 --    14 C    0.973
    45   1 H    0.997 --    15 C    0.968
    46   1 H    0.995 --    15 C    0.970
    47   1 H    0.984 --    16 C    0.940
    48   1 H    0.998 --    16 C    0.970
    49   1 H    0.983 --    18 C    0.960
    50   1 H    0.997 --    18 C    0.970
    51   1 H    0.993 --    19 C    0.970
    52   1 H    0.995 --    19 C    0.967
    53   1 H    0.996 --    21 C    0.967
    54   1 H    0.995 --    22 C    0.963
    55   1 H    0.990 --    25 C    0.972
    56   1 H    0.990 --    25 C    0.972
    57   1 H    0.992 --    25 C    0.977
    58   1 H    0.993 --    28 C    0.977
    59   1 H    0.992 --    28 C    0.973
    60   1 H    0.991 --    28 C    0.972
    61   1 H    0.996 --    29 C    0.962
    62   1 H    0.993 --    30 C    0.975
    63   1 H    0.982 --    30 C    0.965
    64   1 H    0.996 --    30 C    0.977
    65   1 H    0.992 --    31 C    0.954
    66   1 H    0.997 --    32 C    0.984
    67   1 H    0.998 --    32 C    0.982
    68   1 H    0.995 --    32 C    0.981
    69   1 H    0.997 --    33 C    0.980
    70   1 H    0.997 --    33 C    0.983
    71   1 H    0.994 --    33 C    0.978
    72   1 H    0.926 --     1 N    0.901
 ---------------------------------------------------------------------------

molecular dipole:
                 x           y           z       tot (Debye)
 q only:       -0.297       1.041       0.336
   full:       -0.298       1.012       0.711       3.234

           -------------------------------------------------
          | TOTAL ENERGY              -99.391037410048 Eh   |
          | GRADIENT NORM               0.005327624121 Eh/α |
          | HOMO-LUMO GAP               1.329945271061 eV   |
           -------------------------------------------------

 * finished run on 2024/04/06 at 11:16:41.245
