   * xtb version 6.6.1 (8d0f1dd) compiled by 'conda@1efc2f54142f' on 2023-08-01
          program call               : xtb struc.xyz --opt loose --input .xc1 --gfn2

   ID    Z sym.   atoms
    1    6 C      1, 3, 5-7, 10, 11, 14
    2    7 N      2, 4, 9, 13
    3    8 O      8, 12
    4    1 H      15-25
constraining bond 7 16 to    4.7133300 Å, actual value:    3.9875359 Å

          :  Hamiltonian                  GFN2-xTB          :
 * total energy  :   -43.1884359 Eh     change       -0.6650680E-10 Eh
 * total energy  :   -45.8979588 Eh     change       -0.2709523E+01 Eh
 * total energy  :   -50.3708925 Eh     change       -0.4472934E+01 Eh
 * total energy  :   -56.8791387 Eh     change       -0.6508246E+01 Eh
 * total energy  :   -65.3924088 Eh     change       -0.8513270E+01 Eh
 * total energy  :   -72.5074597 Eh     change       -0.7115051E+01 Eh
 * total energy  :   -71.5259510 Eh     change        0.9815088E+00 Eh
 * total energy  :   -72.6688449 Eh     change       -0.1142894E+01 Eh
 * total energy  :   -72.7675274 Eh     change       -0.9868257E-01 Eh
 * total energy  :   -72.4249558 Eh     change        0.3425717E+00 Eh
 * total energy  :   -73.3059209 Eh     change       -0.1419567E-03 Eh
 * total energy  :   -73.2987492 Eh     change        0.7171744E-02 Eh
 * total energy  :   -73.3060927 Eh     change       -0.7343542E-02 Eh
 * total energy  :   -73.3061383 Eh     change       -0.4553446E-04 Eh
 * total energy  :   -73.3062056 Eh     change       -0.6733667E-04 Eh
 * total energy  :   -73.3062263 Eh     change       -0.2072737E-04 Eh
 * total energy  :   -73.3062669 Eh     change       -0.4056904E-04 Eh
 * total energy  :   -73.3062878 Eh     change       -0.2087853E-04 Eh
 * total energy  :   -73.3063082 Eh     change       -0.2036770E-04 Eh
   *** GEOMETRY OPTIMIZATION CONVERGED AFTER 51 ITERATIONS ***

 final structure:
================
25
 xtb: 6.6.1 (8d0f1dd)
C            3.31470848960821        0.99383581058694        0.18432258215243
N            2.41253324558136        0.01590430654066        0.13472894490104
C            2.61144833193408       -1.30435409482871        0.38141179709431
N            1.43956444234022       -1.96600043086352        0.26297279822724
C            0.46476927324752       -1.06030286273386       -0.06903756031278
C            1.07154305617487        0.16832084456806       -0.16790465939463
C            0.31437502697346        1.47020409639304       -0.60418533864697
O            0.71556381659863        2.48763644099754        0.13908787235344
N           -1.18706003517062        1.06183608906887       -0.15671205979234
C           -2.03802047318938        2.19554750237733        0.06422592871818
C           -1.74761212981943       -0.17003135633217       -0.15372437042041
O           -2.93322669347573       -0.36606235635286       -0.06316729930440
N           -0.85847176667418       -1.28264616370311       -0.21078282920758
C           -1.41634280562530       -2.61527598636936       -0.15530275358789
H            4.33292258653288        0.76178680627046        0.43217346925108
H            0.28999076032704        1.50565156020337       -0.98530113706317
H            2.98181976840599        2.00663120577760        0.03352786479810
H            3.55168414432151       -1.75045525818867        0.63442491873058
H           -1.41472630584477        3.00821283223595        0.44266392780055
H           -2.51888717988645        2.51398946252193       -0.86685749897825
H           -2.81965997226337        1.93999913099698        0.77950423622069
H           -1.24782063547823       -3.07434187751261        0.82126581814006
H           -0.98457186381653       -3.23635898923540       -0.94009412898187
H           -2.49103578969982       -2.52730026876057       -0.31306558042781
H            1.31694422299577       -2.95818790205910        0.40699667563028

          :  Hamiltonian                  GFN2-xTB          :
         :: total energy             -73.306308155707 Eh    ::
         :: gradient norm              0.003018445580 Eh/a0 ::
         :: HOMO-LUMO gap              0.369369240145 eV    ::
         :: SCC energy               -42.624051908689 Eh    ::
         :: -> dispersion             -0.022799408070 Eh    ::
         :: repulsion energy           2.791169291379 Eh    ::

    * Orbital Energies and Occupations

         #    Occupation            Energy/Eh            Energy/eV
      -------------------------------------------------------------
         1        2.0000           -0.9164008             -24.9365
       ...           ...                  ...                  ...
        25        1.9999           -0.6718843             -18.2829
        26        1.9998           -0.6635645             -18.0565
        27        1.9998           -0.6590071             -17.9325
        28        1.9993           -0.6429029             -17.4943
        29        1.9989           -0.6346464             -17.2696
        30        1.9982           -0.6272267             -17.0677
        31        1.9974           -0.6215091             -16.9121
        32        1.9911           -0.6019863             -16.3809
        33        1.9717           -0.5834648             -15.8769
        34        1.9059           -0.5639224             -15.3451
        35        1.8350           -0.5544388             -15.0870
        36        1.7763           -0.5491018             -14.9418
        37        1.4582           -0.5319707             -14.4757 (HOMO)
        38        1.0663           -0.5183966             -14.1063 (LUMO)
        39        0.0021           -0.4077159             -11.0945
        40        0.0004           -0.3828970             -10.4192
        41        0.0000           -0.3362177              -9.1489
        42        0.0000           -0.2687213              -7.3123
        43                         -0.2048024              -5.5730
        44                         -0.1785644              -4.8590
        45                         -0.1728106              -4.7024
        46                         -0.0937133              -2.5501
        47                         -0.0794904              -2.1630
        48                         -0.0462528              -1.2586
       ...                                ...                  ...
        67                         13.6932851             372.6133
      -------------------------------------------------------------
                  HL-Gap            0.0135741 Eh            0.3694 eV

     #   Z          covCN         q      C6AA      α(0)
     1   6 C        2.790    -0.055    29.338     8.873
     2   7 N        2.819     0.132    19.001     6.474
     3   6 C        3.035     0.034    27.216     8.557
     4   7 N        2.788    -0.055    22.293     7.013
     5   6 C        3.017     0.114    25.469     8.278
     6   6 C        3.102    -0.022    28.429     8.737
     7   6 C        3.634     0.150    18.512     6.192
     8   8 O        0.862    -0.430    22.278     6.328
     9   7 N        2.707    -0.125    23.723     7.234
    10   6 C        3.701    -0.054    21.716     6.664
    11   6 C        2.719     0.320    21.562     7.601
    12   8 O        0.860    -0.350    20.713     6.102
    13   7 N        2.738    -0.059    22.391     7.028
    14   6 C        3.697    -0.071    22.041     6.715
    15   1 H        0.926     0.118     1.629     1.996
    16   1 H        0.946     0.194     1.129     1.661
    17   1 H        0.926     0.151     1.383     1.839
    18   1 H        0.926     0.128     1.550     1.947
    19   1 H        0.924     0.126     1.569     1.959
    20   1 H        0.924     0.109     1.703     2.041
    21   1 H        0.925     0.113     1.670     2.021
    22   1 H        0.924     0.085     1.927     2.171
    23   1 H        0.925     0.086     1.917     2.165
    24   1 H        0.925     0.129     1.542     1.942
    25   1 H        0.860     0.233     0.953     1.530

Wiberg/Mayer (AO) data.
largest (>0.10) Wiberg bond orders for each atom

     #   Z sym  total        # sym  WBO       # sym  WBO       # sym  WBO
 ---------------------------------------------------------------------------
     1   6 C    3.330 --     2 N    1.317    15 H    0.964    17 H    0.951
     2   7 N    3.763 --     1 C    1.317     3 C    1.226     6 C    1.122
     3   6 C    3.645 --     4 N    1.286     2 N    1.226    18 H    0.953
     4   7 N    3.519 --     3 C    1.286     5 C    1.158    25 H    0.917
     5   6 C    3.927 --     6 C    1.414    13 N    1.194     4 N    1.158
     6   6 C    3.707 --     5 C    1.414     2 N    1.122     7 C    0.890
     7   6 C    3.875 --     8 O    1.259    16 H    0.896     6 C    0.890
                             9 N    0.757
     8   8 O    1.430 --     7 C    1.259
     9   7 N    3.267 --    11 C    1.210    10 C    1.017     7 C    0.757
                            12 O    0.136
    10   6 C    3.868 --     9 N    1.017    21 H    0.945    19 H    0.944
                            20 H    0.921
    11   6 C    3.948 --    12 O    1.658     9 N    1.210    13 N    0.999
    12   8 O    1.968 --    11 C    1.658     9 N    0.136
    13   7 N    3.435 --     5 C    1.194    11 C    0.999    14 C    0.984
    14   6 C    3.914 --    13 N    0.984    23 H    0.966    24 H    0.961
                            22 H    0.961
    15   1 H    0.984 --     1 C    0.964
    16   1 H    0.925 --     7 C    0.896
    17   1 H    0.976 --     1 C    0.951
    18   1 H    0.982 --     3 C    0.953
    19   1 H    0.967 --    10 C    0.944
    20   1 H    0.936 --    10 C    0.921
    21   1 H    0.962 --    10 C    0.945
    22   1 H    0.977 --    14 C    0.961
    23   1 H    0.981 --    14 C    0.966
    24   1 H    0.981 --    14 C    0.961
    25   1 H    0.945 --     4 N    0.917
 ---------------------------------------------------------------------------

molecular dipole:
                 x           y           z       tot (Debye)
 q only:        2.438      -2.077      -0.184
   full:        2.646      -2.489      -0.211       9.249

           -------------------------------------------------
          | TOTAL ENERGY              -73.306308155707 Eh   |
          | GRADIENT NORM               0.003018445580 Eh/α |
          | HOMO-LUMO GAP               0.369369240145 eV   |
           -------------------------------------------------

 * finished run on 2024/06/05 at 19:58:09.935
