   * xtb version 6.6.1 (8d0f1dd) compiled by 'conda@1efc2f54142f' on 2023-08-01
          program call               : xtb xtbopt.xyz --opt crude --input .xc2 --gfn2

   ID    Z sym.   atoms
    1    6 C      1, 3, 5-7, 10, 11, 14
    2    7 N      2, 4, 9, 13
    3    8 O      8, 12
    4    1 H      15-25
########################################################################
[WARNING] Please study the warnings concerning your input carefully
-1- readin_getIntValue: could not parse ''
########################################################################

          :  Hamiltonian                  GFN2-xTB          :
 * total energy  :   -42.1198266 Eh     change       -0.1136868E-12 Eh
 * total energy  :   -42.1434119 Eh     change       -0.2358532E-01 Eh
 * total energy  :   -42.1581079 Eh     change       -0.1469600E-01 Eh
 * total energy  :   -42.1628302 Eh     change       -0.4722327E-02 Eh
 * total energy  :   -42.1642752 Eh     change       -0.1444947E-02 Eh
 * total energy  :   -42.1655209 Eh     change       -0.1245680E-02 Eh
 * total energy  :   -42.1664395 Eh     change       -0.9186602E-03 Eh
 * total energy  :   -42.1669052 Eh     change       -0.4656903E-03 Eh
 * total energy  :   -42.1672889 Eh     change       -0.3837296E-03 Eh
 * total energy  :   -42.1676356 Eh     change       -0.3466488E-03 Eh
 * total energy  :   -42.1677412 Eh     change       -0.1055925E-03 Eh
 * total energy  :   -42.1679559 Eh     change       -0.2146739E-03 Eh
   *** GEOMETRY OPTIMIZATION CONVERGED AFTER 12 ITERATIONS ***

 final structure:
================
25
 xtb: 6.6.1 (8d0f1dd)
C            3.18138012528366        1.22787642914716       -0.09804717170892
N            2.29274648509834        0.09707208544098       -0.06230403952331
C            2.63941328766848       -1.18802300719604       -0.10227619083447
N            1.53162190153344       -1.96492555961203       -0.04345788912822
C            0.44315207950275       -1.13814303817259        0.03152470641784
C            0.92309143089429        0.16119886560222        0.03087271874235
C            0.03352027098589        1.30422031231604        0.11567378429705
O            0.36331817308423        2.46549504806602        0.11371177244590
N           -1.30444854354865        0.86741381139639        0.22159675647003
C           -2.34403862122463        1.92559185662728        0.26799096010199
C           -1.75788055112807       -0.38834897581755        0.20639666734868
O           -2.97379525725124        2.05658452351002       -0.94772325733408
N           -0.88463962166540       -1.40724730174100        0.10608826301986
C           -1.37431383743293       -2.76952863090987        0.07401710816686
H            3.71025229212312        1.32580451165546        0.85158270350597
H            3.91135758790976        1.10638637954542       -0.89730471431604
H            2.59402044065897        2.13048717372277       -0.26588592530533
H            3.64249641846862       -1.55924888301355       -0.17122564662718
H           -1.83080292266482        2.86927402542391        0.47620285336544
H           -3.60211459965841        1.33584017107280       -1.09144594396879
H           -3.02737255924396        1.66579931622320        1.08847136682510
H           -1.02837150158576       -3.32502766427404        0.94652664507658
H           -1.04261243518207       -3.27077043859344       -0.83546731728438
H           -2.46087274095717       -2.73508006103291        0.08524634801321
H            1.52532421243195       -2.97446240779231       -0.06959293986467

          :  Hamiltonian                  GFN2-xTB          :
         :: total energy             -42.167955864694 Eh    ::
         :: gradient norm              0.006787586618 Eh/a0 ::
         :: HOMO-LUMO gap              2.200570017839 eV    ::
         :: SCC energy               -42.671682167428 Eh    ::
         :: -> dispersion             -0.022284402604 Eh    ::
         :: repulsion energy           0.503614338113 Eh    ::

    * Orbital Energies and Occupations

         #    Occupation            Energy/Eh            Energy/eV
      -------------------------------------------------------------
         1        2.0000           -0.9092212             -24.7412
       ...           ...                  ...                  ...
        25        2.0000           -0.6722208             -18.2921
        26        2.0000           -0.6541910             -17.8014
        27        2.0000           -0.6498165             -17.6824
        28        1.9999           -0.6317966             -17.1921
        29        1.9999           -0.6281633             -17.0932
        30        1.9999           -0.6254425             -17.0192
        31        1.9997           -0.6154732             -16.7479
        32        1.9995           -0.6047319             -16.4556
        33        1.9973           -0.5786684             -15.7464
        34        1.9946           -0.5676589             -15.4468
        35        1.9901           -0.5581317             -15.1875
        36        1.9867           -0.5533950             -15.0586
        37        1.8530           -0.5142973             -13.9947 (HOMO)
        38        0.1418           -0.4334278             -11.7942 (LUMO)
        39        0.0306           -0.4082545             -11.1092
        40        0.0072           -0.3851407             -10.4802
        41        0.0000           -0.2860348              -7.7834
        42                         -0.1975889              -5.3767
        43                         -0.1891137              -5.1460
        44                         -0.1353195              -3.6822
        45                         -0.1305884              -3.5535
        46                         -0.0699658              -1.9039
        47                         -0.0435708              -1.1856
        48                         -0.0306339              -0.8336
       ...                                ...                  ...
        67                          0.5392047              14.6725
      -------------------------------------------------------------
                  HL-Gap            0.0808695 Eh            2.2006 eV

     #   Z          covCN         q      C6AA      α(0)
     1   6 C        3.691    -0.091    22.429     6.777
     2   7 N        2.829     0.074    19.949     6.634
     3   6 C        3.050     0.051    26.812     8.492
     4   7 N        2.790    -0.065    22.493     7.044
     5   6 C        3.052     0.105    25.626     8.302
     6   6 C        3.119    -0.007    28.030     8.671
     7   6 C        2.763     0.267    22.488     7.766
     8   8 O        0.857    -0.364    20.968     6.139
     9   7 N        2.748    -0.043    22.078     6.979
    10   6 C        3.632     0.129    18.858     6.252
    11   6 C        1.898    -0.083    33.391     9.333
    12   8 O        1.657    -0.389    20.642     6.133
    13   7 N        2.743     0.028    20.756     6.767
    14   6 C        3.704    -0.078    22.153     6.729
    15   1 H        0.924     0.107     1.719     2.051
    16   1 H        0.925     0.103     1.757     2.073
    17   1 H        0.925     0.135     1.499     1.915
    18   1 H        0.926     0.121     1.603     1.980
    19   1 H        0.924     0.110     1.695     2.036
    20   1 H        0.805     0.319     0.667     1.283
    21   1 H        0.923     0.067     2.116     2.275
    22   1 H        0.924     0.081     1.965     2.192
    23   1 H        0.925     0.080     1.984     2.203
    24   1 H        0.925     0.116     1.645     2.006
    25   1 H        0.860     0.226     0.981     1.551

Wiberg/Mayer (AO) data.
largest (>0.10) Wiberg bond orders for each atom

     #   Z sym  total        # sym  WBO       # sym  WBO       # sym  WBO
 ---------------------------------------------------------------------------
     1   6 C    3.917 --     2 N    0.986    16 H    0.965    17 H    0.961
                            15 H    0.956
     2   7 N    3.662 --     3 C    1.377     6 C    1.161     1 C    0.986
     3   6 C    3.827 --     2 N    1.377     4 N    1.271    18 H    0.954
     4   7 N    3.572 --     3 C    1.271     5 C    1.182    25 H    0.921
     5   6 C    3.935 --     6 C    1.370     4 N    1.182    13 N    1.177
     6   6 C    3.919 --     5 C    1.370     2 N    1.161     7 C    1.074
     7   6 C    3.928 --     8 O    1.704     6 C    1.074     9 N    1.052
     8   8 O    2.033 --     7 C    1.704     9 N    0.129
     9   7 N    3.616 --    11 C    1.377     7 C    1.052    10 C    0.919
                             8 O    0.129
    10   6 C    3.916 --    12 O    1.051    21 H    0.957    19 H    0.953
                             9 N    0.919
    11   6 C    2.861 --     9 N    1.377    13 N    1.282
    12   8 O    2.016 --    10 C    1.051    20 H    0.882
    13   7 N    3.634 --    11 C    1.282     5 C    1.177    14 C    0.982
    14   6 C    3.938 --    13 N    0.982    24 H    0.972    23 H    0.972
                            22 H    0.970
    15   1 H    0.984 --     1 C    0.956
    16   1 H    0.986 --     1 C    0.965
    17   1 H    0.981 --     1 C    0.961
    18   1 H    0.984 --     3 C    0.954
    19   1 H    0.986 --    10 C    0.953
    20   1 H    0.898 --    12 O    0.882
    21   1 H    0.990 --    10 C    0.957
    22   1 H    0.991 --    14 C    0.970
    23   1 H    0.991 --    14 C    0.972
    24   1 H    0.986 --    14 C    0.972
    25   1 H    0.948 --     4 N    0.921
 ---------------------------------------------------------------------------

molecular dipole:
                 x           y           z       tot (Debye)
 q only:        1.713      -2.647       0.176
   full:        2.250      -3.245       0.241      10.055

           -------------------------------------------------
          | TOTAL ENERGY              -42.167955864694 Eh   |
          | GRADIENT NORM               0.006787586618 Eh/α |
          | HOMO-LUMO GAP               2.200570017839 eV   |
           -------------------------------------------------

 * finished run on 2024/06/05 at 19:58:21.542
