   * xtb version 6.6.1 (8d0f1dd) compiled by 'conda@1efc2f54142f' on 2023-08-01
          program call               : xtb struc.xyz --opt loose --input .xc1 --gfn2

   ID    Z sym.   atoms
    1    7 N      1, 17
    2    6 C      2-6, 8, 9, 11-16, 18-23, 25, 26, 28-33
    3    8 O      7, 10, 24, 27
    4    1 H      34-72
constraining bond 20 49 to    3.7133300 Å, actual value:    2.7421593 Å

          :  Hamiltonian                  GFN2-xTB          :
 * total energy  :   -99.5725374 Eh     change       -0.4035485E-08 Eh
 * total energy  :   -99.8423888 Eh     change       -0.2698514E+00 Eh
 * total energy  :  -100.1919625 Eh     change       -0.3495736E+00 Eh
 * total energy  :  -100.5603400 Eh     change       -0.3683775E+00 Eh
 * total energy  :  -100.5938723 Eh     change       -0.3353232E-01 Eh
 * total energy  :  -100.6730461 Eh     change       -0.7917386E-01 Eh
 * total energy  :  -100.6957922 Eh     change       -0.2274610E-01 Eh
 * total energy  :  -100.6919721 Eh     change        0.3820135E-02 Eh
 * total energy  :  -100.7125446 Eh     change       -0.2057254E-01 Eh
 * total energy  :  -100.7131146 Eh     change       -0.5699622E-03 Eh
 * total energy  :  -100.7639399 Eh     change       -0.1093482E-03 Eh
 * total energy  :  -100.7640548 Eh     change       -0.1149203E-03 Eh
 * total energy  :  -100.7641685 Eh     change       -0.1137122E-03 Eh
 * total energy  :  -100.7642221 Eh     change       -0.5356614E-04 Eh
 * total energy  :  -100.7642748 Eh     change       -0.5274128E-04 Eh
 * total energy  :  -100.7643068 Eh     change       -0.3193330E-04 Eh
 * total energy  :  -100.7643493 Eh     change       -0.4255650E-04 Eh
 * total energy  :  -100.7644076 Eh     change       -0.5822862E-04 Eh
 * total energy  :  -100.7644418 Eh     change       -0.3423014E-04 Eh
   *** GEOMETRY OPTIMIZATION CONVERGED AFTER 73 ITERATIONS ***

 final structure:
================
72
 xtb: 6.6.1 (8d0f1dd)
N           -1.49983880660921        2.80162417337831        1.94728963945223
C           -1.58383211789322        2.17677550889034        0.86813044021273
C           -2.86862413533448        1.93229993597270        0.12468373078537
C           -3.26780607077801        0.46971642865245        0.24930414459483
C           -4.27799327264445       -0.04272265343906       -0.56690901240707
C           -4.69338430710541       -1.35980672064456       -0.46492728239779
O           -5.65869378229128       -1.93243862320648       -1.21257190687049
C           -6.37043802472643       -1.14816719259532       -2.14064308839100
C           -4.08230840215353       -2.21461486575298        0.49223490441886
O           -4.55075706733730       -3.47822836942144        0.52081708204183
C           -4.07578384092907       -4.36541893627635        1.50585262146027
C           -3.08316064935037       -1.69901565510200        1.30223097064201
C           -2.68128388191816       -0.37465541392841        1.18037841999618
C           -2.58420448669638        2.28257411707222       -1.35882069136372
C           -1.70673709871770        1.26368041141033       -2.11003796737100
C           -0.25801565011810        1.38766315874592       -1.80261363794152
N            0.58855618544259        0.38840063802777       -1.54308467773118
C            1.91485122707181        0.55502723083411       -1.65740123340553
C            2.95681829392010       -0.38295070129983       -1.25711633396563
C            3.47179550527909       -0.11770017223769        0.28890325006192
C            4.18861802387192        1.18132960516274        0.26872673641853
C            5.54140828745144        1.27515548998024        0.18796961192881
C            6.35949248176901        0.13256726059363        0.24865688652051
O            7.68634607717358        0.11770392243871        0.11398502201434
C            8.38163163778389        1.31390390977153       -0.16182547082790
C            5.74960888914260       -1.13909811398387        0.53513205581495
O            6.63222912788294       -2.13654769601459        0.74962271296655
C            6.14534464505183       -3.41267786998349        1.09268995841216
C            4.39463908290655       -1.24183770116930        0.60562517751029
C            0.04889443241427       -0.90155302029130       -1.14591887053737
C           -4.05482707116598        2.79637289245043        0.65200875249683
C           -4.45810492801837        2.39951149664694        2.07011463407467
C           -3.77257778915655        4.29520309810333        0.60129109523464
H           -4.75682566120299        0.60240781954380       -1.28428679550361
H           -6.88541926231167       -0.31566316716078       -1.65170202471287
H           -7.10702487634608       -1.81642918791626       -2.58250601299010
H           -5.71503224634623       -0.76266171839572       -2.92854640477884
H           -4.26562011997061       -3.98359266241393        2.51312687373378
H           -4.63217798999160       -5.28912931318317        1.35901902971137
H           -3.00615156890800       -4.56503713226838        1.38581759324730
H           -2.61401491857831       -2.31992326238925        2.04810556759089
H           -1.92089858500165        0.00012727761114        1.84824771201046
H           -3.53459039875419        2.36717905632379       -1.88429272754546
H           -2.10004924967007        3.25875258602852       -1.40290120822236
H           -2.08347897208784        0.25695165427838       -1.94187605733533
H           -1.82610842883371        1.48223722265716       -3.17900377177425
H           -0.70883501395758        1.77490167897769        0.32385422183538
H            0.19897773382462        2.33875532454913       -2.03578341861216
H            2.82199395399731       -0.12192965325537        0.73043129065008
H            2.22808760725490        1.53807354780457       -1.96970562939981
H            3.83332916971172       -0.25559121978920       -1.88840146200388
H            2.64648192524905       -1.42468911589834       -1.29990466369909
H            3.58603156292035        2.07641166521950        0.25358620470587
H            6.00116825008225        2.24777258322455        0.10673663950020
H            8.30065939356002        2.02432719168049        0.66681009987045
H            8.02068127807080        1.78325664772064       -1.08156366707160
H            9.42314053875525        1.02388477242862       -0.28601214297456
H            7.02549726562422       -4.04122369420525        1.20740033903225
H            5.59227678140154       -3.38734667746316        2.03694409105621
H            5.50595648349629       -3.82348769562239        0.30489081285607
H            3.92764339662455       -2.18451010906393        0.84183657653179
H           -0.17468206166583       -1.50581488670123       -2.02666737126870
H           -0.86487945843207       -0.76425821328414       -0.56622463216033
H            0.76390100907314       -1.43498087704937       -0.52654999482376
H           -4.90391586430293        2.58814889319608       -0.00945780256887
H           -3.64155204987287        2.59615525347439        2.75732302801672
H           -4.72200284923987        1.34637267172430        2.12604300614271
H           -5.32040251199598        2.98455466340738        2.37924754090897
H           -2.93171925951507        4.54221423961081        1.24227501488409
H           -3.56536844384712        4.63668706482629       -0.40918812198295
H           -4.64416405438409        4.83460284466013        0.96259431472265
H           -0.57625942164585        2.93455787679586        2.34777112120081

          :  Hamiltonian                  GFN2-xTB          :
         :: total energy            -100.764441810973 Eh    ::
         :: gradient norm              0.002328989911 Eh/a0 ::
         :: HOMO-LUMO gap              0.997631656316 eV    ::
         :: SCC energy              -100.740170300001 Eh    ::
         :: -> dispersion             -0.075678370969 Eh    ::
         :: repulsion energy           1.504719404007 Eh    ::

    * Orbital Energies and Occupations

         #    Occupation            Energy/Eh            Energy/eV
      -------------------------------------------------------------
         1        2.0000           -0.8218924             -22.3648
       ...           ...                  ...                  ...
        78        1.9982           -0.5280082             -14.3678
        79        1.9980           -0.5266243             -14.3302
        80        1.9980           -0.5261082             -14.3161
        81        1.9971           -0.5204224             -14.1614
        82        1.9970           -0.5197935             -14.1443
        83        1.9952           -0.5125627             -13.9475
        84        1.9945           -0.5104062             -13.8889
        85        1.9931           -0.5066728             -13.7873
        86        1.9787           -0.4887336             -13.2991
        87        1.9694           -0.4828995             -13.1404
        88        1.9361           -0.4709894             -12.8163
        89        1.8597           -0.4579060             -12.4603
        90        1.6352           -0.4407348             -11.9930 (HOMO)
        91        0.6135           -0.4040725             -10.9954 (LUMO)
        92        0.0228           -0.3463174              -9.4238
        93        0.0121           -0.3362552              -9.1500
        94        0.0033           -0.3157549              -8.5921
        95        0.0031           -0.3147728              -8.5654
        96        0.0026           -0.3120229              -8.4906
        97        0.0000           -0.2355523              -6.4097
        98        0.0000           -0.1892660              -5.1502
        99                         -0.1100943              -2.9958
       100                         -0.0816984              -2.2231
       101                         -0.0724579              -1.9717
       ...                                ...                  ...
       171                          1.1268331              30.6627
      -------------------------------------------------------------
                  HL-Gap            0.0366623 Eh            0.9976 eV

     #   Z          covCN         q      C6AA      α(0)
     1   7 N        1.774    -0.270    27.820     7.811
     2   6 C        2.826     0.101    25.746     8.314
     3   6 C        3.907     0.007    20.406     6.421
     4   6 C        2.974     0.004    27.924     8.668
     5   6 C        2.920    -0.079    29.977     8.979
     6   6 C        2.862     0.130    25.148     8.220
     7   8 O        1.706    -0.229    17.793     5.695
     8   6 C        3.644     0.027    20.452     6.500
     9   6 C        2.864     0.129    25.171     8.224
    10   8 O        1.706    -0.228    17.779     5.693
    11   6 C        3.645     0.027    20.457     6.501
    12   6 C        2.913    -0.074    29.843     8.958
    13   6 C        2.921    -0.053    29.329     8.881
    14   6 C        3.812    -0.065    21.745     6.637
    15   6 C        3.801    -0.065    21.753     6.640
    16   6 C        2.871    -0.037    28.926     8.816
    17   7 N        2.729     0.073    19.978     6.638
    18   6 C        2.867    -0.047    29.151     8.850
    19   6 C        3.786    -0.066    21.772     6.646
    20   6 C        3.844    -0.042    21.293     6.564
    21   6 C        2.910    -0.045    29.123     8.849
    22   6 C        2.899    -0.063    29.564     8.915
    23   6 C        2.864     0.138    24.989     8.194
    24   8 O        1.706    -0.196    17.267     5.610
    25   6 C        3.645     0.020    20.574     6.519
    26   6 C        2.850     0.134    25.060     8.205
    27   8 O        1.706    -0.234    17.871     5.708
    28   6 C        3.646     0.026    20.472     6.502
    29   6 C        2.908    -0.091    30.279     9.023
    30   6 C        3.710    -0.076    22.092     6.717
    31   6 C        3.853    -0.007    20.667     6.466
    32   6 C        3.756    -0.119    22.830     6.813
    33   6 C        3.755    -0.117    22.802     6.809
    34   1 H        0.926     0.054     2.275     2.359
    35   1 H        0.924     0.054     2.270     2.356
    36   1 H        0.925     0.081     1.967     2.193
    37   1 H        0.924     0.048     2.341     2.393
    38   1 H        0.924     0.055     2.258     2.350
    39   1 H        0.925     0.081     1.968     2.194
    40   1 H        0.924     0.048     2.341     2.393
    41   1 H        0.926     0.052     2.298     2.371
    42   1 H        0.926     0.040     2.451     2.448
    43   1 H        0.925     0.055     2.256     2.349
    44   1 H        0.924     0.052     2.294     2.368
    45   1 H        0.925     0.056     2.250     2.346
    46   1 H        0.924     0.068     2.106     2.269
    47   1 H        0.922     0.010     2.894     2.661
    48   1 H        0.926     0.053     2.286     2.365
    49   1 H        0.930     0.108     1.712     2.046
    50   1 H        0.926     0.051     2.302     2.373
    51   1 H        0.925     0.066     2.133     2.284
    52   1 H        0.925     0.060     2.197     2.318
    53   1 H        0.926     0.048     2.343     2.394
    54   1 H        0.926     0.062     2.181     2.309
    55   1 H        0.924     0.064     2.158     2.297
    56   1 H        0.924     0.061     2.193     2.316
    57   1 H        0.925     0.088     1.895     2.153
    58   1 H        0.925     0.083     1.952     2.185
    59   1 H        0.924     0.052     2.299     2.371
    60   1 H        0.924     0.049     2.335     2.389
    61   1 H        0.926     0.048     2.346     2.395
    62   1 H        0.924     0.079     1.990     2.206
    63   1 H        0.924     0.084     1.942     2.179
    64   1 H        0.925     0.082     1.962     2.190
    65   1 H        0.924     0.037     2.488     2.467
    66   1 H        0.925     0.070     2.087     2.259
    67   1 H        0.925     0.035     2.513     2.479
    68   1 H        0.925     0.051     2.310     2.377
    69   1 H        0.925     0.059     2.207     2.323
    70   1 H        0.925     0.035     2.510     2.478
    71   1 H        0.925     0.054     2.276     2.359
    72   1 H        0.860     0.155     1.370     1.834

Wiberg/Mayer (AO) data.
largest (>0.10) Wiberg bond orders for each atom

     #   Z sym  total        # sym  WBO       # sym  WBO       # sym  WBO
 ---------------------------------------------------------------------------
     1   7 N    3.022 --     2 C    1.954    72 H    0.942
     2   6 C    3.929 --     1 N    1.954     3 C    0.995    47 H    0.908
     3   6 C    3.973 --     2 C    0.995     4 C    0.969    14 C    0.959
                            31 C    0.940
     4   6 C    3.946 --    13 C    1.410     5 C    1.369     3 C    0.969
     5   6 C    3.961 --     6 C    1.400     4 C    1.369    34 H    0.957
     6   6 C    3.903 --     5 C    1.400     9 C    1.220     7 O    1.101
     7   8 O    2.254 --     6 C    1.101     8 C    0.978
     8   6 C    3.932 --     7 O    0.978    36 H    0.977    37 H    0.973
                            35 H    0.973
     9   6 C    3.898 --    12 C    1.391     6 C    1.220    10 O    1.102
    10   8 O    2.251 --     9 C    1.102    11 C    0.978
    11   6 C    3.931 --    10 O    0.978    39 H    0.977    38 H    0.973
                            40 H    0.973
    12   6 C    3.961 --    13 C    1.404     9 C    1.391    41 H    0.964
    13   6 C    3.951 --     4 C    1.410    12 C    1.404    42 H    0.963
    14   6 C    3.973 --    15 C    0.983    44 H    0.972    43 H    0.969
                             3 C    0.959
    15   6 C    3.985 --    16 C    1.049    14 C    0.983    45 H    0.963
                            46 H    0.937
    16   6 C    3.650 --    17 N    1.334    15 C    1.049    48 H    0.961
                            18 C    0.178
    17   7 N    3.705 --    16 C    1.334    18 C    1.302    30 C    0.984
    18   6 C    3.679 --    17 N    1.302    19 C    1.117    50 H    0.961
                            16 C    0.178
    19   6 C    3.918 --    18 C    1.117    51 H    0.967    52 H    0.962
                            20 C    0.788
    20   6 C    3.956 --    21 C    1.067    29 C    1.059    49 H    0.959
                            19 C    0.788
    21   6 C    3.759 --    22 C    1.608    20 C    1.067    53 H    0.969
    22   6 C    3.974 --    21 C    1.608    23 C    1.272    54 H    0.959
    23   6 C    3.699 --    22 C    1.272    24 O    1.155    26 C    1.144
    24   8 O    2.266 --    23 C    1.155    25 C    0.970
    25   6 C    3.923 --    57 H    0.976    56 H    0.972    55 H    0.970
                            24 O    0.970
    26   6 C    3.926 --    29 C    1.555    23 C    1.144    27 O    1.094
    27   8 O    2.258 --    26 C    1.094    28 C    0.978    29 C    0.103
    28   6 C    3.932 --    27 O    0.978    58 H    0.977    60 H    0.974
                            59 H    0.974
    29   6 C    3.807 --    26 C    1.555    20 C    1.059    61 H    0.964
                            27 O    0.103
    30   6 C    3.954 --    17 N    0.984    64 H    0.971    62 H    0.968
                            63 H    0.964
    31   6 C    3.970 --    33 C    1.009    32 C    1.008    65 H    0.960
                             3 C    0.940
    32   6 C    3.977 --    31 C    1.008    67 H    0.981    68 H    0.981
                            66 H    0.973
    33   6 C    3.982 --    31 C    1.009    70 H    0.982    71 H    0.980
                            69 H    0.977
    34   1 H    0.996 --     5 C    0.957
    35   1 H    0.993 --     8 C    0.973
    36   1 H    0.993 --     8 C    0.977
    37   1 H    0.993 --     8 C    0.973
    38   1 H    0.993 --    11 C    0.973
    39   1 H    0.993 --    11 C    0.977
    40   1 H    0.993 --    11 C    0.973
    41   1 H    0.996 --    12 C    0.964
    42   1 H    0.998 --    13 C    0.963
    43   1 H    0.995 --    14 C    0.969
    44   1 H    0.996 --    14 C    0.972
    45   1 H    0.997 --    15 C    0.963
    46   1 H    0.973 --    15 C    0.937
    47   1 H    0.982 --     2 C    0.908
    48   1 H    0.997 --    16 C    0.961
    49   1 H    0.981 --    20 C    0.959
    50   1 H    0.997 --    18 C    0.961
    51   1 H    0.990 --    19 C    0.967
    52   1 H    0.993 --    19 C    0.962
    53   1 H    0.997 --    21 C    0.969
    54   1 H    0.995 --    22 C    0.959
    55   1 H    0.988 --    25 C    0.970
    56   1 H    0.990 --    25 C    0.972
    57   1 H    0.992 --    25 C    0.976
    58   1 H    0.993 --    28 C    0.977
    59   1 H    0.995 --    28 C    0.974
    60   1 H    0.995 --    28 C    0.974
    61   1 H    0.996 --    29 C    0.964
    62   1 H    0.992 --    30 C    0.968
    63   1 H    0.993 --    30 C    0.964
    64   1 H    0.993 --    30 C    0.971
    65   1 H    0.991 --    31 C    0.960
    66   1 H    0.990 --    32 C    0.973
    67   1 H    0.996 --    32 C    0.981
    68   1 H    0.994 --    32 C    0.981
    69   1 H    0.993 --    33 C    0.977
    70   1 H    0.997 --    33 C    0.982
    71   1 H    0.994 --    33 C    0.980
    72   1 H    0.970 --     1 N    0.942
 ---------------------------------------------------------------------------

molecular dipole:
                 x           y           z       tot (Debye)
 q only:        1.392      -0.058      -0.869
   full:        1.695      -0.051      -1.081       5.112

           -------------------------------------------------
          | TOTAL ENERGY             -100.764441810973 Eh   |
          | GRADIENT NORM               0.002328989911 Eh/α |
          | HOMO-LUMO GAP               0.997631656316 eV   |
           -------------------------------------------------

 * finished run on 2024/04/06 at 11:16:56.604
