   * xtb version 6.6.1 (8d0f1dd) compiled by 'conda@1efc2f54142f' on 2023-08-01
          program call               : xtb xtbopt.xyz --opt crude --input .xc2 --gfn2

   ID    Z sym.   atoms
    1    7 N      1, 17
    2    6 C      2-6, 8, 9, 11-16, 18-23, 25, 26, 28-33
    3    8 O      7, 10, 24, 27
    4    1 H      34-72
########################################################################
[WARNING] Please study the warnings concerning your input carefully
-1- readin_getIntValue: could not parse ''
########################################################################

          :  Hamiltonian                  GFN2-xTB          :
 * total energy  :   -99.2339810 Eh     change       -0.2461320E-10 Eh
 * total energy  :   -99.3429366 Eh     change       -0.1089555E+00 Eh
 * total energy  :   -99.3448018 Eh     change       -0.1865268E-02 Eh
 * total energy  :   -99.3455858 Eh     change       -0.7840111E-03 Eh
 * total energy  :   -99.3457577 Eh     change       -0.1718167E-03 Eh
   *** GEOMETRY OPTIMIZATION CONVERGED AFTER 5 ITERATIONS ***

 final structure:
================
72
 xtb: 6.6.1 (8d0f1dd)
N           -1.49916582788363        2.80668229841680        1.94488747603976
C           -1.58368279093648        2.17995174648310        0.86692387708694
C           -2.86858184856103        1.93367932288570        0.12404379633227
C           -3.26631433447368        0.47089369446500        0.24887352886599
C           -4.27757185442954       -0.04208458060308       -0.56575857457978
C           -4.69285128537530       -1.35899593779470       -0.46249318966561
O           -5.65900812863659       -1.93218983116339       -1.20863599437313
C           -6.37121665092452       -1.14833136854760       -2.13670469187387
C           -4.08040069067346       -2.21300311273219        0.49469077428208
O           -4.55042061552566       -3.47586179143223        0.52725951250242
C           -4.06887844738338       -4.36242832451778        1.50981272031833
C           -3.07881672853563       -1.69733587075009        1.30166076790550
C           -2.67747038860644       -0.37295448870874        1.17865926423263
C           -2.58371329268540        2.28439308106639       -1.35925982951094
C           -1.70843650661778        1.26401102681057       -2.11119448752918
C           -0.25912840069698        1.38882921639822       -1.80757814752060
N            0.58904193532539        0.39002927080047       -1.55071973093777
C            1.91388146019089        0.55707335680170       -1.66513499380471
C            2.95676692071432       -0.38771222888453       -1.26545421616125
C            3.50196168601869       -0.12480956644812        0.23772239908527
C            4.19304545805735        1.18048828337529        0.25418063611961
C            5.54775052369935        1.27528395964862        0.19122877227036
C            6.36513913468896        0.13197658472474        0.24950524495621
O            7.69323316127329        0.11689449943664        0.12262208776452
C            8.38956104444844        1.31306042010191       -0.14929805508625
C            5.75598156186722       -1.14286523764328        0.52822443007783
O            6.64199793767770       -2.13563708735467        0.75179704837498
C            6.15789117192664       -3.41506845311826        1.08756023587762
C            4.40037101040799       -1.24980798524087        0.58590402230509
C            0.05269993566391       -0.89981288315667       -1.14770050407481
C           -4.05588614072241        2.79619250389769        0.65094298284827
C           -4.45758018120423        2.39960301490023        2.06962697094541
C           -3.77640412159465        4.29545184000681        0.59803470282838
H           -4.75652210381092        0.60318654352597       -1.28279269399291
H           -6.88608893262144       -0.31595614013289       -1.64762966752645
H           -7.10763302767962       -1.81677878282763       -2.57835958038725
H           -5.71610323246529       -0.76285796848449       -2.92476456758100
H           -4.25376662097353       -3.98080675584936        2.51831803487060
H           -4.62481781942791       -5.28685508537010        1.36608722627659
H           -2.99956187373648       -4.56010951916145        1.38385667791574
H           -2.60722896175751       -2.31768574618796        2.04637460597900
H           -1.91596760737130        0.00190161408945        1.84517592147901
H           -3.53403626879397        2.37131331719052       -1.88454247948658
H           -2.09729980695051        3.25947911693456       -1.40230915370894
H           -2.08470256402671        0.25735385465406       -1.94025107678863
H           -1.83069666233327        1.48041769674841       -3.18056776596455
H           -0.70937143450127        1.77680270817048        0.32378111952621
H            0.19607459290846        2.34076543033191       -2.03961984446220
H            2.61147293999174       -0.12315398899860        0.86983464337585
H            2.22793638398492        1.53949642137246       -1.97985751459623
H            3.82350416195125       -0.26591775037490       -1.91474812964171
H            2.64069935055625       -1.42746394730061       -1.31311448183916
H            3.58814623434991        2.07271867371985        0.24196638721302
H            6.00916678293054        2.24847412569487        0.12750261522129
H            8.30446934138509        2.02144819676830        0.67948470361690
H            8.03309529374341        1.78208720728810       -1.07098455654091
H            9.43188531377096        1.02408298444706       -0.26975054046427
H            7.04026493499052       -4.03953163699405        1.21073802769542
H            5.59455795835678       -3.39327937422201        2.02540642981065
H            5.52961083455442       -3.82714418465494        0.29186202696373
H            3.93104121961922       -2.19261997167286        0.81320269694179
H           -0.16802787594516       -1.50968037748857       -2.02458626404917
H           -0.86030697279590       -0.76224728067322       -0.56914934657455
H            0.76936459266070       -1.42610228511693       -0.52466792369708
H           -4.90496605180663        2.58579400056806       -0.00971634374471
H           -3.63961527755146        2.59501067996991        2.75561269987921
H           -4.72245559638696        1.34660944888677        2.12534007455539
H           -5.31868120048424        2.98544682315646        2.38042982997114
H           -2.93291939542004        4.54451271299896        1.23480045369385
H           -3.57468770340185        4.63647822178466       -0.41382383092845
H           -4.64733445749054        4.83359934288081        0.96310021705874
H           -0.57577759751378        2.93975582467368        2.34539737665706

          :  Hamiltonian                  GFN2-xTB          :
         :: total energy             -99.345757669727 Eh    ::
         :: gradient norm              0.004923090052 Eh/a0 ::
         :: HOMO-LUMO gap              0.944129501484 eV    ::
         :: SCC energy              -100.714940509388 Eh    ::
         :: -> dispersion             -0.075702616263 Eh    ::
         :: repulsion energy           1.367708287621 Eh    ::

    * Orbital Energies and Occupations

         #    Occupation            Energy/Eh            Energy/eV
      -------------------------------------------------------------
         1        2.0000           -0.8223335             -22.3768
       ...           ...                  ...                  ...
        78        1.9982           -0.5285496             -14.3826
        79        1.9980           -0.5266817             -14.3317
        80        1.9979           -0.5261090             -14.3162
        81        1.9971           -0.5204949             -14.1634
        82        1.9970           -0.5199400             -14.1483
        83        1.9952           -0.5125762             -13.9479
        84        1.9945           -0.5103742             -13.8880
        85        1.9930           -0.5066799             -13.7875
        86        1.9785           -0.4887769             -13.3003
        87        1.9684           -0.4825706             -13.1314
        88        1.9352           -0.4709206             -12.8144
        89        1.8588           -0.4579597             -12.4617
        90        1.6147           -0.4398303             -11.9684 (HOMO)
        91        0.6380           -0.4051342             -11.0243 (LUMO)
        92        0.0223           -0.3461396              -9.4189
        93        0.0120           -0.3361861              -9.1481
        94        0.0033           -0.3158864              -8.5957
        95        0.0031           -0.3148208              -8.5667
        96        0.0026           -0.3120547              -8.4914
        97        0.0000           -0.2356228              -6.4116
        98        0.0000           -0.1892998              -5.1511
        99                         -0.1095643              -2.9814
       100                         -0.0723001              -1.9674
       101                         -0.0664394              -1.8079
       ...                                ...                  ...
       171                          0.5736332              15.6094
      -------------------------------------------------------------
                  HL-Gap            0.0346961 Eh            0.9441 eV

     #   Z          covCN         q      C6AA      α(0)
     1   7 N        1.774    -0.270    27.816     7.810
     2   6 C        2.826     0.101    25.744     8.314
     3   6 C        3.907     0.007    20.406     6.421
     4   6 C        2.974     0.004    27.922     8.668
     5   6 C        2.920    -0.079    29.977     8.978
     6   6 C        2.862     0.130    25.146     8.220
     7   8 O        1.706    -0.229    17.791     5.695
     8   6 C        3.644     0.027    20.452     6.500
     9   6 C        2.864     0.129    25.170     8.224
    10   8 O        1.706    -0.228    17.776     5.692
    11   6 C        3.645     0.027    20.457     6.501
    12   6 C        2.913    -0.074    29.843     8.958
    13   6 C        2.921    -0.053    29.327     8.881
    14   6 C        3.812    -0.065    21.746     6.638
    15   6 C        3.801    -0.065    21.750     6.640
    16   6 C        2.871    -0.038    28.951     8.820
    17   7 N        2.729     0.074    19.953     6.634
    18   6 C        2.867    -0.046    29.126     8.847
    19   6 C        3.796    -0.063    21.714     6.635
    20   6 C        3.851    -0.013    20.773     6.483
    21   6 C        2.909    -0.041    29.027     8.834
    22   6 C        2.900    -0.062    29.545     8.912
    23   6 C        2.863     0.138    24.988     8.194
    24   8 O        1.706    -0.195    17.261     5.609
    25   6 C        3.645     0.020    20.573     6.519
    26   6 C        2.851     0.135    25.051     8.203
    27   8 O        1.706    -0.233    17.865     5.707
    28   6 C        3.646     0.026    20.476     6.503
    29   6 C        2.907    -0.087    30.176     9.007
    30   6 C        3.710    -0.076    22.092     6.717
    31   6 C        3.853    -0.007    20.667     6.466
    32   6 C        3.756    -0.119    22.830     6.813
    33   6 C        3.755    -0.117    22.802     6.809
    34   1 H        0.926     0.054     2.274     2.358
    35   1 H        0.924     0.054     2.269     2.356
    36   1 H        0.925     0.081     1.966     2.193
    37   1 H        0.924     0.048     2.341     2.393
    38   1 H        0.924     0.055     2.257     2.350
    39   1 H        0.925     0.081     1.967     2.193
    40   1 H        0.924     0.048     2.340     2.392
    41   1 H        0.926     0.052     2.297     2.370
    42   1 H        0.926     0.040     2.452     2.449
    43   1 H        0.925     0.055     2.255     2.349
    44   1 H        0.924     0.052     2.292     2.368
    45   1 H        0.925     0.056     2.250     2.346
    46   1 H        0.924     0.068     2.107     2.270
    47   1 H        0.922     0.010     2.892     2.660
    48   1 H        0.926     0.052     2.289     2.366
    49   1 H        0.924     0.056     2.246     2.344
    50   1 H        0.926     0.052     2.296     2.369
    51   1 H        0.925     0.065     2.136     2.286
    52   1 H        0.925     0.060     2.194     2.316
    53   1 H        0.926     0.050     2.316     2.380
    54   1 H        0.926     0.062     2.171     2.304
    55   1 H        0.924     0.064     2.155     2.296
    56   1 H        0.924     0.061     2.192     2.315
    57   1 H        0.925     0.088     1.894     2.152
    58   1 H        0.925     0.083     1.949     2.183
    59   1 H        0.924     0.052     2.296     2.370
    60   1 H        0.924     0.049     2.332     2.388
    61   1 H        0.926     0.050     2.319     2.382
    62   1 H        0.924     0.079     1.988     2.205
    63   1 H        0.925     0.084     1.938     2.177
    64   1 H        0.925     0.082     1.957     2.188
    65   1 H        0.924     0.037     2.487     2.466
    66   1 H        0.925     0.070     2.087     2.259
    67   1 H        0.925     0.035     2.513     2.479
    68   1 H        0.925     0.051     2.309     2.376
    69   1 H        0.925     0.059     2.207     2.323
    70   1 H        0.925     0.036     2.509     2.477
    71   1 H        0.925     0.054     2.276     2.359
    72   1 H        0.860     0.155     1.369     1.833

Wiberg/Mayer (AO) data.
largest (>0.10) Wiberg bond orders for each atom

     #   Z sym  total        # sym  WBO       # sym  WBO       # sym  WBO
 ---------------------------------------------------------------------------
     1   7 N    3.022 --     2 C    1.955    72 H    0.942
     2   6 C    3.929 --     1 N    1.955     3 C    0.995    47 H    0.908
     3   6 C    3.972 --     2 C    0.995     4 C    0.969    14 C    0.959
                            31 C    0.940
     4   6 C    3.946 --    13 C    1.410     5 C    1.368     3 C    0.969
     5   6 C    3.961 --     6 C    1.400     4 C    1.368    34 H    0.957
     6   6 C    3.903 --     5 C    1.400     9 C    1.220     7 O    1.101
     7   8 O    2.254 --     6 C    1.101     8 C    0.978
     8   6 C    3.931 --     7 O    0.978    36 H    0.977    37 H    0.973
                            35 H    0.973
     9   6 C    3.898 --    12 C    1.391     6 C    1.220    10 O    1.102
    10   8 O    2.251 --     9 C    1.102    11 C    0.978
    11   6 C    3.931 --    10 O    0.978    39 H    0.977    40 H    0.973
                            38 H    0.973
    12   6 C    3.961 --    13 C    1.404     9 C    1.391    41 H    0.964
    13   6 C    3.951 --     4 C    1.410    12 C    1.404    42 H    0.963
    14   6 C    3.973 --    15 C    0.984    44 H    0.972    43 H    0.969
                             3 C    0.959
    15   6 C    3.985 --    16 C    1.049    14 C    0.984    45 H    0.963
                            46 H    0.937
    16   6 C    3.648 --    17 N    1.332    15 C    1.049    48 H    0.961
                            18 C    0.182
    17   7 N    3.709 --    16 C    1.332    18 C    1.311    30 C    0.984
    18   6 C    3.667 --    17 N    1.311    19 C    1.100    50 H    0.962
                            16 C    0.182
    19   6 C    3.927 --    18 C    1.100    51 H    0.965    52 H    0.962
                            20 C    0.824
    20   6 C    3.963 --    21 C    1.062    29 C    1.054    49 H    0.947
                            19 C    0.824
    21   6 C    3.749 --    22 C    1.609    20 C    1.062    53 H    0.969
    22   6 C    3.974 --    21 C    1.609    23 C    1.270    54 H    0.959
    23   6 C    3.690 --    22 C    1.270    24 O    1.155    26 C    1.142
    24   8 O    2.264 --    23 C    1.155    25 C    0.970
    25   6 C    3.923 --    57 H    0.976    56 H    0.972    55 H    0.970
                            24 O    0.970
    26   6 C    3.927 --    29 C    1.558    23 C    1.142    27 O    1.095
    27   8 O    2.258 --    26 C    1.095    28 C    0.977    29 C    0.104
    28   6 C    3.932 --    27 O    0.977    58 H    0.977    59 H    0.974
                            60 H    0.974
    29   6 C    3.800 --    26 C    1.558    20 C    1.054    61 H    0.964
                            27 O    0.104
    30   6 C    3.954 --    17 N    0.984    64 H    0.971    62 H    0.968
                            63 H    0.964
    31   6 C    3.970 --    33 C    1.009    32 C    1.008    65 H    0.960
                             3 C    0.940
    32   6 C    3.977 --    31 C    1.008    67 H    0.981    68 H    0.981
                            66 H    0.973
    33   6 C    3.982 --    31 C    1.009    70 H    0.982    71 H    0.980
                            69 H    0.977
    34   1 H    0.996 --     5 C    0.957
    35   1 H    0.993 --     8 C    0.973
    36   1 H    0.993 --     8 C    0.977
    37   1 H    0.993 --     8 C    0.973
    38   1 H    0.992 --    11 C    0.973
    39   1 H    0.993 --    11 C    0.977
    40   1 H    0.993 --    11 C    0.973
    41   1 H    0.996 --    12 C    0.964
    42   1 H    0.998 --    13 C    0.963
    43   1 H    0.995 --    14 C    0.969
    44   1 H    0.996 --    14 C    0.972
    45   1 H    0.996 --    15 C    0.963
    46   1 H    0.973 --    15 C    0.937
    47   1 H    0.982 --     2 C    0.908
    48   1 H    0.997 --    16 C    0.961
    49   1 H    0.980 --    20 C    0.947
    50   1 H    0.997 --    18 C    0.962
    51   1 H    0.990 --    19 C    0.965
    52   1 H    0.993 --    19 C    0.962
    53   1 H    0.997 --    21 C    0.969
    54   1 H    0.995 --    22 C    0.959
    55   1 H    0.988 --    25 C    0.970
    56   1 H    0.990 --    25 C    0.972
    57   1 H    0.992 --    25 C    0.976
    58   1 H    0.992 --    28 C    0.977
    59   1 H    0.995 --    28 C    0.974
    60   1 H    0.995 --    28 C    0.974
    61   1 H    0.996 --    29 C    0.964
    62   1 H    0.992 --    30 C    0.968
    63   1 H    0.992 --    30 C    0.964
    64   1 H    0.993 --    30 C    0.971
    65   1 H    0.991 --    31 C    0.960
    66   1 H    0.990 --    32 C    0.973
    67   1 H    0.996 --    32 C    0.981
    68   1 H    0.994 --    32 C    0.981
    69   1 H    0.993 --    33 C    0.977
    70   1 H    0.997 --    33 C    0.982
    71   1 H    0.993 --    33 C    0.980
    72   1 H    0.970 --     1 N    0.942
 ---------------------------------------------------------------------------

molecular dipole:
                 x           y           z       tot (Debye)
 q only:        1.439      -0.058      -0.909
   full:        1.725      -0.052      -1.111       5.217

           -------------------------------------------------
          | TOTAL ENERGY              -99.345757669727 Eh   |
          | GRADIENT NORM               0.004923090052 Eh/α |
          | HOMO-LUMO GAP               0.944129501484 eV   |
           -------------------------------------------------

 * finished run on 2024/04/06 at 11:16:57.719
