   * xtb version 6.6.1 (8d0f1dd) compiled by 'conda@1efc2f54142f' on 2023-08-01
          program call               : xtb xtbopt.xyz --opt crude --input .xc2 --gfn2

   ID    Z sym.   atoms
    1    6 C      1, 3, 5-7, 10, 11, 14
    2    7 N      2, 4, 9, 13
    3    8 O      8, 12
    4    1 H      15-25
########################################################################
[WARNING] Please study the warnings concerning your input carefully
-1- readin_getIntValue: could not parse ''
########################################################################

          :  Hamiltonian                  GFN2-xTB          :
 * total energy  :   -40.4173003 Eh     change        0.2131628E-13 Eh
 * total energy  :   -42.1200231 Eh     change       -0.1702723E+01 Eh
 * total energy  :   -42.1429831 Eh     change       -0.2295993E-01 Eh
 * total energy  :   -42.1487476 Eh     change       -0.5764538E-02 Eh
 * total energy  :   -42.1512439 Eh     change       -0.2496276E-02 Eh
 * total energy  :   -42.1517394 Eh     change       -0.4955338E-03 Eh
 * total energy  :   -42.1527621 Eh     change       -0.1022715E-02 Eh
 * total energy  :   -42.1534060 Eh     change       -0.6438928E-03 Eh
 * total energy  :   -42.1538783 Eh     change       -0.4722912E-03 Eh
 * total energy  :   -42.1540689 Eh     change       -0.1905913E-03 Eh
   *** GEOMETRY OPTIMIZATION CONVERGED AFTER 10 ITERATIONS ***

 final structure:
================
25
 xtb: 6.6.1 (8d0f1dd)
C            3.12068401024865        1.19828806894791        0.16914285634847
N            2.14747796854474        0.14101890636210        0.09023874141181
C            2.39830306199652       -1.13216268557911       -0.19026105056438
N            1.24013080862288       -1.81731332933063       -0.20798546278432
C            0.22204884436932       -0.94574567401880        0.07621748972357
C            0.80393190199510        0.28654181918618        0.28246347933160
C            0.09100654695079        1.56467602420127        0.61972184306759
O            0.42051788001774        2.63295386169987        0.12776013931164
N           -1.52963241246104        1.04048545081867       -0.17900692503360
C           -2.17555238075738        2.01036071576061       -0.69718277580068
C           -2.07164300551625       -0.26064534218818       -0.09445228564961
O           -3.24233723597123       -0.50469129983784       -0.17339625598167
N           -1.10960516771306       -1.24987509177407        0.07535951752080
C           -1.54037730548953       -2.63616091047098        0.11910905847098
H            3.50557896804876        1.28818071454317        1.18629235870688
H            3.94603668711153        0.98966162482522       -0.50756463894961
H            2.64208271637663        2.13929226717183       -0.10458614121694
H            3.36743648287241       -1.55299069475413       -0.37246251446932
H           -1.67898943834432        2.97309899906704       -0.71082748595422
H           -3.16924371815661        1.89409405850366       -1.11090401592504
H           -0.37305011847649        1.50738313688950        1.62892906199195
H           -1.05623029363342       -3.15288158291568        0.94719261207379
H           -1.32657298336181       -3.14616678040326       -0.82229742936948
H           -2.61828478374701       -2.64336574646923        0.27468200771956
H            1.14671448057220       -2.80579796863487       -0.39501056608152

          :  Hamiltonian                  GFN2-xTB          :
         :: total energy             -42.154068894571 Eh    ::
         :: gradient norm              0.005208295533 Eh/a0 ::
         :: HOMO-LUMO gap              2.146094470786 eV    ::
         :: SCC energy               -42.681366891508 Eh    ::
         :: -> dispersion             -0.023074646020 Eh    ::
         :: repulsion energy           0.527126883814 Eh    ::

    * Orbital Energies and Occupations

         #    Occupation            Energy/Eh            Energy/eV
      -------------------------------------------------------------
         1        2.0000           -0.9107396             -24.7825
       ...           ...                  ...                  ...
        25        2.0000           -0.6728209             -18.3084
        26        2.0000           -0.6665246             -18.1371
        27        1.9999           -0.6548890             -17.8204
        28        1.9998           -0.6355373             -17.2938
        29        1.9998           -0.6347523             -17.2725
        30        1.9997           -0.6256192             -17.0240
        31        1.9995           -0.6205813             -16.8869
        32        1.9994           -0.6170161             -16.7899
        33        1.9992           -0.6124449             -16.6655
        34        1.9963           -0.5877211             -15.9927
        35        1.9791           -0.5602015             -15.2439
        36        1.9502           -0.5462623             -14.8646
        37        1.8686           -0.5302156             -14.4279 (HOMO)
        38        0.1780           -0.4513480             -12.2818 (LUMO)
        39        0.0254           -0.4192433             -11.4082
        40        0.0049           -0.3931761             -10.6989
        41        0.0001           -0.3294294              -8.9642
        42        0.0001           -0.3255723              -8.8593
        43                         -0.1917976              -5.2191
        44                         -0.1854133              -5.0454
        45                         -0.1422768              -3.8715
        46                         -0.0794129              -2.1609
        47                         -0.0668964              -1.8203
        48                         -0.0458505              -1.2477
       ...                                ...                  ...
        67                          0.5385771              14.6554
      -------------------------------------------------------------
                  HL-Gap            0.0788675 Eh            2.1461 eV

     #   Z          covCN         q      C6AA      α(0)
     1   6 C        3.693    -0.093    22.472     6.783
     2   7 N        2.850     0.089    19.706     6.593
     3   6 C        3.053     0.047    26.887     8.504
     4   7 N        2.808    -0.056    22.322     7.017
     5   6 C        3.036     0.105    25.650     8.307
     6   6 C        3.108    -0.005    28.006     8.671
     7   6 C        3.337     0.210    21.461     7.333
     8   8 O        0.856    -0.387    21.426     6.206
     9   7 N        2.409    -0.132    23.972     7.270
    10   6 C        2.792     0.048    26.901     8.496
    11   6 C        2.730     0.327    21.436     7.580
    12   8 O        0.858    -0.340    20.517     6.073
    13   7 N        2.738    -0.059    22.382     7.026
    14   6 C        3.699    -0.072    22.045     6.715
    15   1 H        0.924     0.109     1.701     2.040
    16   1 H        0.925     0.104     1.752     2.070
    17   1 H        0.924     0.137     1.480     1.902
    18   1 H        0.926     0.125     1.576     1.963
    19   1 H        0.925     0.143     1.437     1.875
    20   1 H        0.925     0.124     1.580     1.965
    21   1 H        0.921     0.061     2.192     2.315
    22   1 H        0.925     0.081     1.967     2.193
    23   1 H        0.924     0.080     1.982     2.201
    24   1 H        0.925     0.123     1.589     1.971
    25   1 H        0.860     0.230     0.963     1.538

Wiberg/Mayer (AO) data.
largest (>0.10) Wiberg bond orders for each atom

     #   Z sym  total        # sym  WBO       # sym  WBO       # sym  WBO
 ---------------------------------------------------------------------------
     1   6 C    3.915 --     2 N    0.984    16 H    0.970    17 H    0.956
                            15 H    0.955
     2   7 N    3.716 --     3 C    1.382     6 C    1.204     1 C    0.984
     3   6 C    3.891 --     2 N    1.382     4 N    1.297    18 H    0.952
     4   7 N    3.602 --     3 C    1.297     5 C    1.184    25 H    0.917
     5   6 C    3.936 --     6 C    1.423     4 N    1.184    13 N    1.141
     6   6 C    3.894 --     5 C    1.423     2 N    1.204     7 C    0.958
     7   6 C    3.940 --     8 O    1.630     6 C    0.958    21 H    0.890
                             9 N    0.389
     8   8 O    1.919 --     7 C    1.630     9 N    0.137
     9   7 N    3.419 --    10 C    1.749    11 C    1.011     7 C    0.389
                             8 O    0.137
    10   6 C    3.724 --     9 N    1.749    20 H    0.944    19 H    0.942
    11   6 C    3.920 --    12 O    1.728    13 N    1.096     9 N    1.011
    12   8 O    2.050 --    11 C    1.728    13 N    0.143
    13   7 N    3.519 --     5 C    1.141    11 C    1.096    14 C    0.975
                            12 O    0.143
    14   6 C    3.928 --    13 N    0.975    22 H    0.974    23 H    0.969
                            24 H    0.965
    15   1 H    0.987 --     1 C    0.955
    16   1 H    0.988 --     1 C    0.970
    17   1 H    0.980 --     1 C    0.956
    18   1 H    0.983 --     3 C    0.952
    19   1 H    0.976 --    10 C    0.942
    20   1 H    0.978 --    10 C    0.944
    21   1 H    0.957 --     7 C    0.890
    22   1 H    0.990 --    14 C    0.974
    23   1 H    0.990 --    14 C    0.969
    24   1 H    0.984 --    14 C    0.965
    25   1 H    0.946 --     4 N    0.917
 ---------------------------------------------------------------------------

molecular dipole:
                 x           y           z       tot (Debye)
 q only:        2.238      -1.728      -0.158
   full:        2.259      -2.145      -0.148       7.927

           -------------------------------------------------
          | TOTAL ENERGY              -42.154068894571 Eh   |
          | GRADIENT NORM               0.005208295533 Eh/α |
          | HOMO-LUMO GAP               2.146094470786 eV   |
           -------------------------------------------------

 * finished run on 2024/06/05 at 20:00:27.673
