   * xtb version 6.6.1 (8d0f1dd) compiled by 'conda@1efc2f54142f' on 2023-08-01
          program call               : xtb struc.xyz --opt loose --input .xc1 --gfn2

   ID    Z sym.   atoms
    1    7 N      1, 17
    2    6 C      2-6, 8, 9, 11-16, 18-23, 25, 26, 28-33
    3    8 O      7, 10, 24, 27
    4    1 H      34-72
constraining bond 17 48 to    2.6866700 Å, actual value:    2.0347383 Å

          :  Hamiltonian                  GFN2-xTB          :
 * total energy  :   -99.4800187 Eh     change       -0.4035485E-08 Eh
 * total energy  :   -99.5594985 Eh     change       -0.7947977E-01 Eh
 * total energy  :   -99.6458246 Eh     change       -0.8632614E-01 Eh
 * total energy  :   -99.6345951 Eh     change        0.1122955E-01 Eh
 * total energy  :   -99.7015827 Eh     change       -0.6698760E-01 Eh
 * total energy  :   -99.7262622 Eh     change       -0.2467954E-01 Eh
 * total energy  :   -99.7563221 Eh     change       -0.3005987E-01 Eh
 * total energy  :   -99.7848655 Eh     change       -0.2854342E-01 Eh
 * total energy  :   -99.8036349 Eh     change       -0.1876946E-01 Eh
 * total energy  :   -99.8278025 Eh     change       -0.2416754E-01 Eh
 * total energy  :   -99.8827696 Eh     change       -0.1862562E-03 Eh
 * total energy  :   -99.8829598 Eh     change       -0.1902151E-03 Eh
 * total energy  :   -99.8830612 Eh     change       -0.1014004E-03 Eh
 * total energy  :   -99.8832294 Eh     change       -0.1682313E-03 Eh
 * total energy  :   -99.8833238 Eh     change       -0.9431649E-04 Eh
 * total energy  :   -99.8834559 Eh     change       -0.1321510E-03 Eh
 * total energy  :   -99.8835414 Eh     change       -0.8545234E-04 Eh
 * total energy  :   -99.8836091 Eh     change       -0.6778391E-04 Eh
 * total energy  :   -99.8836395 Eh     change       -0.3039878E-04 Eh
   *** GEOMETRY OPTIMIZATION CONVERGED AFTER 38 ITERATIONS ***

 final structure:
================
72
 xtb: 6.6.1 (8d0f1dd)
N           -1.59645958703253        2.99889560807722        2.07476055100295
C           -1.97830628797591        2.18563783327175        1.25914619649899
C           -3.06712284357861        1.98340721757612        0.32058831037503
C           -3.50256175778616        0.52590769564320        0.33096310359966
C           -4.43990451394456        0.06190135541952       -0.59239971072192
C           -4.86086101318057       -1.25729853038537       -0.58445648983705
O           -5.76195714937612       -1.79436843035212       -1.43595568713525
C           -6.42359674098868       -0.95744298229831       -2.35424629759515
C           -4.32892773988044       -2.15612597441727        0.37759645686442
O           -4.79887034751749       -3.42131885028105        0.31190735788704
C           -4.40042282686394       -4.34750460140843        1.29472819659017
C           -3.39749706335643       -1.68711551400175        1.28845039110182
C           -2.99178122075451       -0.35882561829997        1.26374625632742
C           -2.51085459206936        2.37954443075579       -1.07530857517477
C           -1.54816642981985        1.34709749594010       -1.66162948390814
C           -0.30427260841996        1.22473299044392       -0.83214568956000
N            0.48799890627159        0.01406295653013       -1.15404988127131
C            1.89670390496451        0.22623129624556       -0.70447305947778
C            2.90407585761870       -0.58543403991994       -1.51793050325257
C            4.29439189331529       -0.30640939762462       -1.00346017385628
C            4.90890364502178        0.90450268642756       -1.27034656454109
C            6.16746205040185        1.18514670781558       -0.76102350810325
C            6.83952430436288        0.25585618049265        0.01969039454771
O            8.05737475956009        0.42908562105878        0.57103600406785
C            8.72348776226502        1.65604846010441        0.38376009538711
C            6.22383110405935       -0.99733862194704        0.28043762925296
O            6.95249972789166       -1.85459374706487        1.02742213079821
C            6.44562445554664       -3.14190573202261        1.28530055402402
C            4.95893919128413       -1.25039912817229       -0.22601615461545
C           -0.05901740827830       -1.23988160358540       -0.57247737826269
C           -4.29842736458705        2.87943843347378        0.70284147462827
C           -4.83610056632412        2.49918864377979        2.07918824806606
C           -3.99436030322643        4.37141817119453        0.65128589530207
H           -4.84884658418278        0.74398353104784       -1.31970694361134
H           -6.97270005336303       -0.15867252461796       -1.84620749871922
H           -7.12819793106662       -1.59970257859243       -2.87902473985126
H           -5.72746437627547       -0.52110533581457       -3.07830969387830
H           -4.66945236104881       -4.00695235264289        2.29920846030013
H           -4.94121102086785       -5.26425366189828        1.06838517910002
H           -3.32396868646573       -4.54325450563669        1.25135382130971
H           -2.98769297587590       -2.34544678474978        2.03705599277726
H           -2.27980337564866       -0.01126405307795        1.99958986658110
H           -3.35329608274467        2.50682350587004       -1.75451391466121
H           -1.99241125414621        3.33402408737996       -0.99122558611555
H           -2.08519608671007        0.38999522233451       -1.76960964254708
H           -1.28297057282550        1.67411051157610       -2.67542596166579
H           -0.48189118721788        1.30881244852227        0.24334777397058
H            0.47905034720934       -0.04529816765455       -1.96622696979081
H            1.96774937960543       -0.02434938635435        0.35506543144318
H            2.11194761870979        1.29109563732872       -0.81570606970468
H            2.83997435392556       -0.29823610984591       -2.56986974910906
H            2.69732188232232       -1.65338752069683       -1.43781448819836
H            4.41616823810082        1.64127936809387       -1.88641013693055
H            6.62144091472532        2.13596774021339       -0.98610771036025
H            8.13774506192252        2.49357402188192        0.77479397497158
H            8.95185055772588        1.83191417747026       -0.67217274735928
H            9.65245042688018        1.57215440268340        0.94424533228134
H            7.21798892742348       -3.64996546251216        1.85947275477908
H            5.52483887742797       -3.10156077508393        1.87653715439494
H            6.26209827104098       -3.69445746132539        0.35822422220548
H            4.48063280129331       -2.19696603911561       -0.02722975812034
H           -1.04843351477091       -1.43340770147426       -0.98900505143247
H           -0.15241908180301       -1.12798783557372        0.50647978559127
H            0.59167132776935       -2.08440600069479       -0.80082147401512
H           -5.06864215612222        2.65525614860332       -0.04205928236540
H           -4.11574551232719        2.74951274101859        2.85391048159727
H           -5.05500253033078        1.43555447897454        2.13576105676780
H           -5.75289995081697        3.04712001522858        2.27912047021167
H           -3.18024545738455        4.62256370853910        1.32633393896797
H           -3.73496537513378        4.69719381774866       -0.35191209913670
H           -4.87525909617919        4.92561583390482        0.96554218909898
H           -0.74904736337818        2.99612136897388        2.61926638482544

          :  Hamiltonian                  GFN2-xTB          :
         :: total energy             -99.883639547330 Eh    ::
         :: gradient norm              0.003938576179 Eh/a0 ::
         :: HOMO-LUMO gap              1.006529899682 eV    ::
         :: SCC energy              -100.708761523360 Eh    ::
         :: -> dispersion             -0.074854702225 Eh    ::
         :: repulsion energy           1.449773950324 Eh    ::

    * Orbital Energies and Occupations

         #    Occupation            Energy/Eh            Energy/eV
      -------------------------------------------------------------
         1        2.0000           -0.8191764             -22.2909
       ...           ...                  ...                  ...
        78        1.9994           -0.5316269             -14.4663
        79        1.9993           -0.5291447             -14.3988
        80        1.9990           -0.5239607             -14.2577
        81        1.9990           -0.5235140             -14.2455
        82        1.9988           -0.5206180             -14.1667
        83        1.9987           -0.5193166             -14.1313
        84        1.9982           -0.5147723             -14.0077
        85        1.9982           -0.5146770             -14.0051
        86        1.9904           -0.4880230             -13.2798
        87        1.9867           -0.4829281             -13.1411
        88        1.9312           -0.4564199             -12.4198
        89        1.8986           -0.4500107             -12.2454
        90        1.5938           -0.4252649             -11.5720 (HOMO)
        91        0.5502           -0.3882756             -10.5655 (LUMO)
        92        0.0420           -0.3427684              -9.3272
        93        0.0067           -0.3135001              -8.5308
        94        0.0055           -0.3102605              -8.4426
        95        0.0045           -0.3069970              -8.3538
        96        0.0039           -0.3046919              -8.2911
        97        0.0000           -0.1873722              -5.0987
        98        0.0000           -0.1848635              -5.0304
        99        0.0000           -0.1685753              -4.5872
       100                         -0.0997304              -2.7138
       101                         -0.0808024              -2.1987
       ...                                ...                  ...
       171                          0.6549894              17.8232
      -------------------------------------------------------------
                  HL-Gap            0.0369893 Eh            1.0065 eV

     #   Z          covCN         q      C6AA      α(0)
     1   7 N        1.772    -0.181    25.688     7.505
     2   6 C        1.921     0.081    29.070     8.707
     3   6 C        3.906     0.027    20.056     6.366
     4   6 C        2.978     0.002    27.969     8.675
     5   6 C        2.920    -0.080    29.990     8.980
     6   6 C        2.863     0.127    25.208     8.230
     7   8 O        1.706    -0.237    17.919     5.715
     8   6 C        3.644     0.030    20.404     6.493
     9   6 C        2.865     0.126    25.239     8.235
    10   8 O        1.706    -0.236    17.916     5.715
    11   6 C        3.645     0.029    20.417     6.494
    12   6 C        2.914    -0.077    29.927     8.971
    13   6 C        2.922    -0.054    29.341     8.883
    14   6 C        3.820    -0.056    21.567     6.609
    15   6 C        3.801    -0.057    21.597     6.617
    16   6 C        2.828    -0.172    32.478     9.338
    17   7 N        3.579     0.035    20.620     6.744
    18   6 C        3.755    -0.033    21.213     6.567
    19   6 C        3.807    -0.074    21.915     6.664
    20   6 C        2.971    -0.005    28.138     8.701
    21   6 C        2.922    -0.053    29.316     8.879
    22   6 C        2.915    -0.069    29.720     8.940
    23   6 C        2.865     0.131    25.125     8.216
    24   8 O        1.706    -0.228    17.781     5.693
    25   6 C        3.646     0.026    20.462     6.501
    26   6 C        2.863     0.131    25.137     8.218
    27   8 O        1.706    -0.231    17.823     5.700
    28   6 C        3.645     0.029    20.428     6.496
    29   6 C        2.920    -0.081    30.030     8.986
    30   6 C        3.692    -0.079    22.195     6.741
    31   6 C        3.853    -0.008    20.677     6.467
    32   6 C        3.755    -0.114    22.732     6.798
    33   6 C        3.755    -0.119    22.836     6.814
    34   1 H        0.926     0.049     2.336     2.390
    35   1 H        0.924     0.050     2.318     2.381
    36   1 H        0.925     0.079     1.993     2.208
    37   1 H        0.924     0.045     2.386     2.416
    38   1 H        0.924     0.052     2.300     2.372
    39   1 H        0.925     0.079     1.992     2.207
    40   1 H        0.924     0.044     2.397     2.421
    41   1 H        0.926     0.047     2.353     2.399
    42   1 H        0.925     0.032     2.563     2.504
    43   1 H        0.925     0.054     2.270     2.356
    44   1 H        0.925     0.058     2.224     2.332
    45   1 H        0.923     0.020     2.731     2.584
    46   1 H        0.924     0.040     2.451     2.448
    47   1 H        0.924     0.023     2.688     2.564
    48   1 H        0.863     0.223     0.993     1.561
    49   1 H        0.924     0.078     2.001     2.212
    50   1 H        0.924     0.095     1.829     2.115
    51   1 H        0.924     0.055     2.260     2.351
    52   1 H        0.924     0.050     2.317     2.380
    53   1 H        0.926     0.043     2.414     2.430
    54   1 H        0.926     0.057     2.240     2.340
    55   1 H        0.924     0.051     2.310     2.377
    56   1 H        0.924     0.053     2.277     2.360
    57   1 H        0.925     0.080     1.980     2.200
    58   1 H        0.925     0.080     1.983     2.202
    59   1 H        0.924     0.046     2.374     2.410
    60   1 H        0.924     0.050     2.324     2.384
    61   1 H        0.926     0.044     2.393     2.419
    62   1 H        0.924     0.081     1.972     2.196
    63   1 H        0.925     0.085     1.925     2.170
    64   1 H        0.924     0.079     1.992     2.207
    65   1 H        0.924     0.049     2.332     2.388
    66   1 H        0.925     0.047     2.353     2.399
    67   1 H        0.925     0.039     2.456     2.451
    68   1 H        0.925     0.054     2.271     2.356
    69   1 H        0.925     0.055     2.264     2.353
    70   1 H        0.925     0.042     2.417     2.431
    71   1 H        0.925     0.057     2.231     2.336
    72   1 H        0.860     0.203     1.089     1.635

Wiberg/Mayer (AO) data.
largest (>0.10) Wiberg bond orders for each atom

     #   Z sym  total        # sym  WBO       # sym  WBO       # sym  WBO
 ---------------------------------------------------------------------------
     1   7 N    3.184 --     2 C    2.123    72 H    0.910
     2   6 C    3.368 --     1 N    2.123     3 C    1.051
     3   6 C    3.960 --     2 C    1.051     4 C    0.965    14 C    0.933
                            31 C    0.894
     4   6 C    3.954 --    13 C    1.426     5 C    1.368     3 C    0.965
     5   6 C    3.968 --     6 C    1.405     4 C    1.368    34 H    0.959
     6   6 C    3.918 --     5 C    1.405     9 C    1.231     7 O    1.093
     7   8 O    2.258 --     6 C    1.093     8 C    0.979
     8   6 C    3.935 --     7 O    0.979    36 H    0.977    35 H    0.975
                            37 H    0.974
     9   6 C    3.916 --    12 C    1.400     6 C    1.231    10 O    1.092
    10   8 O    2.255 --     9 C    1.092    11 C    0.979
    11   6 C    3.935 --    10 O    0.979    39 H    0.977    40 H    0.975
                            38 H    0.975
    12   6 C    3.969 --     9 C    1.400    13 C    1.399    41 H    0.964
    13   6 C    3.962 --     4 C    1.426    12 C    1.399    42 H    0.958
    14   6 C    3.984 --    15 C    1.005    44 H    0.972    43 H    0.967
                             3 C    0.933
    15   6 C    3.979 --    16 C    1.033    14 C    1.005    46 H    0.959
                            45 H    0.943
    16   6 C    2.972 --    15 C    1.033    47 H    0.911    17 N    0.893
    17   7 N    3.742 --    30 C    0.951    18 C    0.933    48 H    0.924
                            16 C    0.893
    18   6 C    3.928 --    19 C    0.997    49 H    0.973    50 H    0.965
                            17 N    0.933
    19   6 C    3.989 --    20 C    0.999    18 C    0.997    52 H    0.971
                            51 H    0.969
    20   6 C    3.955 --    21 C    1.418    29 C    1.382    19 C    0.999
    21   6 C    3.963 --    20 C    1.418    22 C    1.414    53 H    0.968
    22   6 C    3.967 --    21 C    1.414    23 C    1.388    54 H    0.964
    23   6 C    3.910 --    22 C    1.388    26 C    1.230    24 O    1.103
    24   8 O    2.259 --    23 C    1.103    25 C    0.977
    25   6 C    3.932 --    24 O    0.977    57 H    0.977    55 H    0.974
                            56 H    0.973
    26   6 C    3.911 --    29 C    1.397    23 C    1.230    27 O    1.096
    27   8 O    2.256 --    26 C    1.096    28 C    0.980
    28   6 C    3.935 --    27 O    0.980    58 H    0.977    60 H    0.974
                            59 H    0.974
    29   6 C    3.966 --    26 C    1.397    20 C    1.382    61 H    0.962
    30   6 C    3.929 --    63 H    0.981    62 H    0.976    64 H    0.975
                            17 N    0.951
    31   6 C    3.944 --    33 C    1.014    32 C    1.012    65 H    0.954
                             3 C    0.894
    32   6 C    3.991 --    31 C    1.012    66 H    0.984    67 H    0.983
                            68 H    0.981
    33   6 C    3.989 --    31 C    1.014    70 H    0.984    71 H    0.979
                            69 H    0.978
    34   1 H    0.996 --     5 C    0.959
    35   1 H    0.995 --     8 C    0.975
    36   1 H    0.993 --     8 C    0.977
    37   1 H    0.996 --     8 C    0.974
    38   1 H    0.995 --    11 C    0.975
    39   1 H    0.993 --    11 C    0.977
    40   1 H    0.996 --    11 C    0.975
    41   1 H    0.996 --    12 C    0.964
    42   1 H    0.999 --    13 C    0.958
    43   1 H    0.995 --    14 C    0.967
    44   1 H    0.995 --    14 C    0.972
    45   1 H    0.969 --    15 C    0.943
    46   1 H    0.983 --    15 C    0.959
    47   1 H    0.990 --    16 C    0.911
    48   1 H    0.949 --    17 N    0.924
    49   1 H    0.994 --    18 C    0.973
    50   1 H    0.991 --    18 C    0.965
    51   1 H    0.995 --    19 C    0.969
    52   1 H    0.997 --    19 C    0.971
    53   1 H    0.998 --    21 C    0.968
    54   1 H    0.995 --    22 C    0.964
    55   1 H    0.994 --    25 C    0.974
    56   1 H    0.993 --    25 C    0.973
    57   1 H    0.993 --    25 C    0.977
    58   1 H    0.993 --    28 C    0.977
    59   1 H    0.995 --    28 C    0.974
    60   1 H    0.995 --    28 C    0.974
    61   1 H    0.997 --    29 C    0.962
    62   1 H    0.993 --    30 C    0.976
    63   1 H    0.993 --    30 C    0.981
    64   1 H    0.991 --    30 C    0.975
    65   1 H    0.990 --    31 C    0.954
    66   1 H    0.997 --    32 C    0.984
    67   1 H    0.998 --    32 C    0.983
    68   1 H    0.995 --    32 C    0.981
    69   1 H    0.996 --    33 C    0.978
    70   1 H    0.998 --    33 C    0.984
    71   1 H    0.994 --    33 C    0.979
    72   1 H    0.935 --     1 N    0.910
 ---------------------------------------------------------------------------

molecular dipole:
                 x           y           z       tot (Debye)
 q only:        0.452       0.371      -0.403
   full:        0.231       0.072      -0.508       1.431

           -------------------------------------------------
          | TOTAL ENERGY              -99.883639547330 Eh   |
          | GRADIENT NORM               0.003938576179 Eh/α |
          | HOMO-LUMO GAP               1.006529899682 eV   |
           -------------------------------------------------

 * finished run on 2024/04/06 at 11:16:46.187
