   * xtb version 6.6.1 (8d0f1dd) compiled by 'conda@1efc2f54142f' on 2023-08-01
          program call               : xtb xtbopt.xyz --opt crude --input .xc2 --gfn2

   ID    Z sym.   atoms
    1    7 N      1, 17
    2    6 C      2-6, 8, 9, 11-16, 18-23, 25, 26, 28-33
    3    8 O      7, 10, 24, 27
    4    1 H      34-72
########################################################################
[WARNING] Please study the warnings concerning your input carefully
-1- readin_getIntValue: could not parse ''
########################################################################

          :  Hamiltonian                  GFN2-xTB          :
 * total energy  :   -99.2577352 Eh     change       -0.3211653E-11 Eh
 * total energy  :   -99.3102071 Eh     change       -0.5247190E-01 Eh
 * total energy  :   -99.3107769 Eh     change       -0.5698010E-03 Eh
 * total energy  :   -99.3109674 Eh     change       -0.1905248E-03 Eh
   *** GEOMETRY OPTIMIZATION CONVERGED AFTER 4 ITERATIONS ***

 final structure:
================
72
 xtb: 6.6.1 (8d0f1dd)
N           -1.60330369851342        2.99848742346317        2.08300417578082
C           -1.98038783290787        2.18673980002526        1.26316207023681
C           -3.06865040794080        1.98366522110953        0.32429912600037
C           -3.50365878528922        0.52643547238133        0.33441721098178
C           -4.43942677011218        0.06248160374118       -0.59031981781258
C           -4.85961145613418       -1.25677718995042       -0.58369916331956
O           -5.76031157859119       -1.79332803489605       -1.43618734433902
C           -6.42007205700074       -0.95560912077692       -2.35543463968983
C           -4.32824734354535       -2.15641308500389        0.37785246863895
O           -4.79637757806005       -3.42172785797769        0.30934137762714
C           -4.39920368536115       -4.34865794570187        1.29195636095051
C           -3.39833649800917       -1.68747307460411        1.29043016320283
C           -2.99395602671722       -0.35894210118129        1.26732075860057
C           -2.51176174273930        2.37893246177789       -1.07130493028415
C           -1.54887981264190        1.34647744088538       -1.65729067804251
C           -0.30603290568899        1.22580238625728       -0.82703795739894
N            0.48823111694418        0.01730130479095       -1.12174057756638
C            1.89828404705031        0.22503185462621       -0.69440005881931
C            2.90330972030445       -0.58582138349314       -1.51177941904986
C            4.29533277191500       -0.30779935889150       -1.00190121822712
C            4.90975506313421        0.90303707943300       -1.26966530146222
C            6.16910588923547        1.18441517877097       -0.76218593915896
C            6.84019939847145        0.25624206074871        0.01960823602015
O            8.05786334983710        0.42849141925605        0.57168813987352
C            8.72796071354474        1.65286664239622        0.37987096726115
C            6.22549248903595       -0.99688717842038        0.28139244913543
O            6.95410110702298       -1.85171833080669        1.03053507782482
C            6.44821497222920       -3.13912214146290        1.28907351481084
C            4.96112477604066       -1.25181598240000       -0.22503163767562
C           -0.06135346828810       -1.24174360791368       -0.56485033109066
C           -4.30183660904923        2.87982057863576        0.70416870325789
C           -4.84105755423337        2.50180948117721        2.08036310296604
C           -3.99869035062072        4.37171036857168        0.65073701695846
H           -4.84784354149944        0.74414355300158       -1.31835752803703
H           -6.96858957382012       -0.15610887992008       -1.84802793183469
H           -7.12478768506864       -1.59741992889214       -2.88043980537094
H           -5.72258156726612       -0.52031711889572       -3.07877587105763
H           -4.66834245256693       -4.00829203131958        2.29640811021574
H           -4.94059818701956       -5.26485195244698        1.06493248237911
H           -3.32280439324786       -4.54517793743159        1.24901174383517
H           -2.98882308579039       -2.34597343772448        2.03908691758341
H           -2.28291027979652       -0.01078496033179        2.00393850073711
H           -3.35412883867186        2.50856804152938       -1.75049001381732
H           -1.99176705494534        3.33295987395233       -0.98796643732238
H           -2.08396683894339        0.38872308785346       -1.76554832987165
H           -1.28298935783295        1.67434827177000       -2.66977357924259
H           -0.48743710338991        1.32655634064565        0.24723768665856
H            0.48349750642678       -0.06135307533001       -2.14065047201790
H            1.98007458208300       -0.02548849950173        0.36507899833943
H            2.11522840002225        1.28922586130835       -0.80714045975869
H            2.83394207567166       -0.29402849943909       -2.56267059462113
H            2.69672466391474       -1.65413292107875       -1.43500909988306
H            4.41516383705031        1.63895745500992       -1.88508807651246
H            6.62288964254517        2.13514792222690       -0.98810039129003
H            8.14763152558389        2.49290000549923        0.77397472065583
H            8.95185136739756        1.82664012267720       -0.67696484216008
H            9.65948984176531        1.56597405241413        0.93575010839306
H            7.22027859910948       -3.64658326945338        1.86405373613374
H            5.52711514054305       -3.09871552736811        1.87984904149208
H            6.26551037128832       -3.69236884432549        0.36242002326553
H            4.48379982655653       -2.19863678332370       -0.02629025995483
H           -1.05393201576864       -1.42481304743787       -0.97052960387452
H           -0.14572760788955       -1.14494819413822        0.51624109104079
H            0.58249687545655       -2.08534967472048       -0.80334856339944
H           -5.07074100823453        2.65356751998206       -0.04129052853031
H           -4.12122391147720        2.75201423853806        2.85537032335800
H           -5.06223594941187        1.43858621014999        2.13812647525867
H           -5.75723820828998        3.05164910410467        2.27877419912793
H           -3.18538257727396        4.62435144998403        1.32598882343591
H           -3.73888224765657        4.69662318305360       -0.35269755070654
H           -4.88022076138551        4.92552727207450        0.96368241534657
H           -0.75384366449070        2.99710915523813        2.62410747842643

          :  Hamiltonian                  GFN2-xTB          :
         :: total energy             -99.310967417586 Eh    ::
         :: gradient norm              0.004777650081 Eh/a0 ::
         :: HOMO-LUMO gap              0.999299310794 eV    ::
         :: SCC energy              -100.686276309530 Eh    ::
         :: -> dispersion             -0.074834212414 Eh    ::
         :: repulsion energy           1.374049693799 Eh    ::

    * Orbital Energies and Occupations

         #    Occupation            Energy/Eh            Energy/eV
      -------------------------------------------------------------
         1        2.0000           -0.8115126             -22.0824
       ...           ...                  ...                  ...
        78        1.9994           -0.5313753             -14.4595
        79        1.9993           -0.5289791             -14.3943
        80        1.9990           -0.5237929             -14.2531
        81        1.9990           -0.5232578             -14.2386
        82        1.9988           -0.5203780             -14.1602
        83        1.9987           -0.5190312             -14.1236
        84        1.9982           -0.5145694             -14.0021
        85        1.9982           -0.5144656             -13.9993
        86        1.9905           -0.4877761             -13.2731
        87        1.9870           -0.4827421             -13.1361
        88        1.9321           -0.4561472             -12.4124
        89        1.9004           -0.4498254             -12.2404
        90        1.5891           -0.4245533             -11.5527 (HOMO)
        91        0.5511           -0.3878297             -10.5534 (LUMO)
        92        0.0421           -0.3423329              -9.3154
        93        0.0068           -0.3131962              -8.5225
        94        0.0055           -0.3099468              -8.4341
        95        0.0045           -0.3067905              -8.3482
        96        0.0039           -0.3044833              -8.2854
        97        0.0000           -0.1870559              -5.0901
        98        0.0000           -0.1846434              -5.0244
        99        0.0000           -0.1713775              -4.6634
       100                         -0.0899204              -2.4469
       101                         -0.0754970              -2.0544
       ...                                ...                  ...
       171                          0.6538404              17.7919
      -------------------------------------------------------------
                  HL-Gap            0.0367236 Eh            0.9993 eV

     #   Z          covCN         q      C6AA      α(0)
     1   7 N        1.772    -0.182    25.713     7.509
     2   6 C        1.921     0.080    29.084     8.709
     3   6 C        3.906     0.027    20.058     6.366
     4   6 C        2.978     0.002    27.972     8.675
     5   6 C        2.920    -0.080    29.992     8.981
     6   6 C        2.863     0.127    25.212     8.230
     7   8 O        1.706    -0.237    17.925     5.716
     8   6 C        3.644     0.030    20.404     6.493
     9   6 C        2.865     0.126    25.240     8.235
    10   8 O        1.706    -0.236    17.916     5.715
    11   6 C        3.645     0.029    20.416     6.494
    12   6 C        2.914    -0.077    29.928     8.971
    13   6 C        2.922    -0.054    29.339     8.883
    14   6 C        3.820    -0.056    21.567     6.609
    15   6 C        3.801    -0.057    21.601     6.617
    16   6 C        2.827    -0.169    32.372     9.323
    17   7 N        3.578     0.049    20.389     6.706
    18   6 C        3.754    -0.031    21.183     6.563
    19   6 C        3.807    -0.074    21.907     6.663
    20   6 C        2.971    -0.005    28.141     8.702
    21   6 C        2.922    -0.053    29.318     8.879
    22   6 C        2.915    -0.069    29.720     8.940
    23   6 C        2.865     0.131    25.126     8.216
    24   8 O        1.706    -0.228    17.787     5.694
    25   6 C        3.646     0.026    20.462     6.501
    26   6 C        2.864     0.131    25.137     8.218
    27   8 O        1.706    -0.231    17.822     5.700
    28   6 C        3.645     0.029    20.425     6.496
    29   6 C        2.920    -0.081    30.032     8.987
    30   6 C        3.692    -0.077    22.159     6.736
    31   6 C        3.853    -0.008    20.677     6.467
    32   6 C        3.755    -0.114    22.730     6.798
    33   6 C        3.755    -0.119    22.833     6.813
    34   1 H        0.926     0.049     2.338     2.391
    35   1 H        0.924     0.050     2.318     2.381
    36   1 H        0.925     0.079     1.993     2.208
    37   1 H        0.924     0.045     2.388     2.416
    38   1 H        0.924     0.052     2.300     2.372
    39   1 H        0.925     0.079     1.993     2.208
    40   1 H        0.924     0.044     2.398     2.422
    41   1 H        0.926     0.047     2.355     2.400
    42   1 H        0.925     0.031     2.566     2.505
    43   1 H        0.925     0.054     2.270     2.356
    44   1 H        0.925     0.058     2.224     2.332
    45   1 H        0.923     0.021     2.724     2.581
    46   1 H        0.924     0.040     2.453     2.449
    47   1 H        0.924     0.025     2.660     2.551
    48   1 H        0.860     0.209     1.060     1.613
    49   1 H        0.924     0.078     1.999     2.211
    50   1 H        0.924     0.095     1.836     2.119
    51   1 H        0.924     0.054     2.275     2.359
    52   1 H        0.924     0.050     2.318     2.381
    53   1 H        0.926     0.042     2.418     2.432
    54   1 H        0.926     0.056     2.241     2.341
    55   1 H        0.924     0.051     2.310     2.377
    56   1 H        0.924     0.053     2.278     2.360
    57   1 H        0.925     0.080     1.981     2.201
    58   1 H        0.925     0.079     1.984     2.203
    59   1 H        0.924     0.046     2.376     2.410
    60   1 H        0.924     0.050     2.325     2.384
    61   1 H        0.926     0.044     2.395     2.420
    62   1 H        0.925     0.081     1.973     2.197
    63   1 H        0.925     0.085     1.931     2.173
    64   1 H        0.925     0.078     1.998     2.211
    65   1 H        0.924     0.049     2.335     2.390
    66   1 H        0.925     0.048     2.350     2.397
    67   1 H        0.925     0.039     2.457     2.451
    68   1 H        0.925     0.054     2.272     2.357
    69   1 H        0.925     0.055     2.264     2.353
    70   1 H        0.925     0.042     2.419     2.432
    71   1 H        0.925     0.057     2.232     2.336
    72   1 H        0.860     0.203     1.092     1.637

Wiberg/Mayer (AO) data.
largest (>0.10) Wiberg bond orders for each atom

     #   Z sym  total        # sym  WBO       # sym  WBO       # sym  WBO
 ---------------------------------------------------------------------------
     1   7 N    3.182 --     2 C    2.120    72 H    0.910
     2   6 C    3.368 --     1 N    2.120     3 C    1.051
     3   6 C    3.960 --     2 C    1.051     4 C    0.965    14 C    0.933
                            31 C    0.894
     4   6 C    3.955 --    13 C    1.426     5 C    1.368     3 C    0.965
     5   6 C    3.969 --     6 C    1.405     4 C    1.368    34 H    0.959
     6   6 C    3.918 --     5 C    1.405     9 C    1.231     7 O    1.092
     7   8 O    2.257 --     6 C    1.092     8 C    0.979
     8   6 C    3.935 --     7 O    0.979    36 H    0.977    35 H    0.975
                            37 H    0.974
     9   6 C    3.916 --    12 C    1.399     6 C    1.231    10 O    1.093
    10   8 O    2.255 --     9 C    1.093    11 C    0.979
    11   6 C    3.935 --    10 O    0.979    39 H    0.977    40 H    0.975
                            38 H    0.975
    12   6 C    3.969 --     9 C    1.399    13 C    1.399    41 H    0.964
    13   6 C    3.962 --     4 C    1.426    12 C    1.399    42 H    0.958
    14   6 C    3.984 --    15 C    1.005    44 H    0.972    43 H    0.967
                             3 C    0.933
    15   6 C    3.979 --    16 C    1.034    14 C    1.005    46 H    0.959
                            45 H    0.943
    16   6 C    2.976 --    15 C    1.034    47 H    0.907    17 N    0.902
    17   7 N    3.754 --    30 C    0.955    18 C    0.939    48 H    0.919
                            16 C    0.902
    18   6 C    3.929 --    19 C    0.996    49 H    0.970    50 H    0.965
                            17 N    0.939
    19   6 C    3.989 --    20 C    0.999    18 C    0.996    52 H    0.971
                            51 H    0.968
    20   6 C    3.956 --    21 C    1.418    29 C    1.382    19 C    0.999
    21   6 C    3.963 --    20 C    1.418    22 C    1.414    53 H    0.968
    22   6 C    3.967 --    21 C    1.414    23 C    1.389    54 H    0.964
    23   6 C    3.911 --    22 C    1.389    26 C    1.230    24 O    1.103
    24   8 O    2.259 --    23 C    1.103    25 C    0.977
    25   6 C    3.932 --    24 O    0.977    57 H    0.977    55 H    0.974
                            56 H    0.974
    26   6 C    3.912 --    29 C    1.397    23 C    1.230    27 O    1.096
    27   8 O    2.257 --    26 C    1.096    28 C    0.980
    28   6 C    3.935 --    27 O    0.980    58 H    0.977    60 H    0.974
                            59 H    0.974
    29   6 C    3.966 --    26 C    1.397    20 C    1.382    61 H    0.962
    30   6 C    3.930 --    63 H    0.978    62 H    0.976    64 H    0.975
                            17 N    0.955
    31   6 C    3.944 --    33 C    1.014    32 C    1.012    65 H    0.954
                             3 C    0.894
    32   6 C    3.991 --    31 C    1.012    66 H    0.984    67 H    0.983
                            68 H    0.981
    33   6 C    3.989 --    31 C    1.014    70 H    0.984    71 H    0.979
                            69 H    0.978
    34   1 H    0.997 --     5 C    0.959
    35   1 H    0.995 --     8 C    0.975
    36   1 H    0.993 --     8 C    0.977
    37   1 H    0.996 --     8 C    0.974
    38   1 H    0.995 --    11 C    0.975
    39   1 H    0.993 --    11 C    0.977
    40   1 H    0.996 --    11 C    0.975
    41   1 H    0.996 --    12 C    0.964
    42   1 H    0.999 --    13 C    0.958
    43   1 H    0.995 --    14 C    0.967
    44   1 H    0.995 --    14 C    0.972
    45   1 H    0.969 --    15 C    0.943
    46   1 H    0.983 --    15 C    0.959
    47   1 H    0.990 --    16 C    0.907
    48   1 H    0.954 --    17 N    0.919
    49   1 H    0.994 --    18 C    0.970
    50   1 H    0.991 --    18 C    0.965
    51   1 H    0.996 --    19 C    0.968
    52   1 H    0.997 --    19 C    0.971
    53   1 H    0.998 --    21 C    0.968
    54   1 H    0.995 --    22 C    0.964
    55   1 H    0.994 --    25 C    0.974
    56   1 H    0.993 --    25 C    0.974
    57   1 H    0.993 --    25 C    0.977
    58   1 H    0.993 --    28 C    0.977
    59   1 H    0.995 --    28 C    0.974
    60   1 H    0.995 --    28 C    0.974
    61   1 H    0.997 --    29 C    0.962
    62   1 H    0.993 --    30 C    0.976
    63   1 H    0.993 --    30 C    0.978
    64   1 H    0.991 --    30 C    0.975
    65   1 H    0.990 --    31 C    0.954
    66   1 H    0.997 --    32 C    0.984
    67   1 H    0.998 --    32 C    0.983
    68   1 H    0.995 --    32 C    0.981
    69   1 H    0.996 --    33 C    0.978
    70   1 H    0.998 --    33 C    0.984
    71   1 H    0.994 --    33 C    0.979
    72   1 H    0.936 --     1 N    0.910
 ---------------------------------------------------------------------------

molecular dipole:
                 x           y           z       tot (Debye)
 q only:        0.457       0.366      -0.453
   full:        0.243       0.066      -0.556       1.551

           -------------------------------------------------
          | TOTAL ENERGY              -99.310967417586 Eh   |
          | GRADIENT NORM               0.004777650081 Eh/α |
          | HOMO-LUMO GAP               0.999299310794 eV   |
           -------------------------------------------------

 * finished run on 2024/04/06 at 11:16:47.137
