   * xtb version 6.6.1 (8d0f1dd) compiled by 'conda@1efc2f54142f' on 2023-08-01
          program call               : xtb struc.xyz --opt loose --input .xc1 --gfn2

   ID    Z sym.   atoms
    1    7 N      1, 17
    2    6 C      2-6, 8, 9, 11-16, 18-23, 25, 26, 28-33
    3    8 O      7, 10, 24, 27
    4    1 H      34-72
constraining bond 29 53 to    3.7133300 Å, actual value:    3.3793397 Å

          :  Hamiltonian                  GFN2-xTB          :
 * total energy  :   -99.4240484 Eh     change       -0.4035485E-08 Eh
 * total energy  :   -99.4580966 Eh     change       -0.3404813E-01 Eh
 * total energy  :   -99.4821691 Eh     change       -0.2407256E-01 Eh
 * total energy  :   -99.5046042 Eh     change       -0.2243509E-01 Eh
 * total energy  :   -99.5569872 Eh     change       -0.5238301E-01 Eh
 * total energy  :   -99.5947301 Eh     change       -0.3774286E-01 Eh
 * total energy  :   -99.6689144 Eh     change       -0.7418437E-01 Eh
 * total energy  :   -99.8776587 Eh     change       -0.2087442E+00 Eh
 * total energy  :  -100.0998312 Eh     change       -0.2221725E+00 Eh
 * total energy  :   -99.6500776 Eh     change        0.4497535E+00 Eh
 * total energy  :  -100.5353904 Eh     change       -0.1518890E-03 Eh
 * total energy  :  -100.5354998 Eh     change       -0.1094833E-03 Eh
 * total energy  :  -100.5356247 Eh     change       -0.1249039E-03 Eh
 * total energy  :  -100.5357117 Eh     change       -0.8693055E-04 Eh
 * total energy  :  -100.5358004 Eh     change       -0.8871030E-04 Eh
 * total energy  :  -100.5358754 Eh     change       -0.7504930E-04 Eh
 * total energy  :  -100.5359520 Eh     change       -0.7656684E-04 Eh
 * total energy  :  -100.5360301 Eh     change       -0.7807031E-04 Eh
 * total energy  :  -100.5360575 Eh     change       -0.2745030E-04 Eh
   *** GEOMETRY OPTIMIZATION CONVERGED AFTER 44 ITERATIONS ***

 final structure:
================
72
 xtb: 6.6.1 (8d0f1dd)
N           -1.71910416038436        2.83170914901697        2.16854360928394
C           -1.69345066492974        2.10152090821355        1.15616021056991
C           -2.84512177083334        1.91564390375080        0.20624361976843
C           -3.35489259142672        0.48634468586761        0.29589345814307
C           -4.27561085419654        0.01642105810550       -0.64311449441562
C           -4.78708465495912       -1.26892673494718       -0.57471609365583
O           -5.68557470364809       -1.79683188941648       -1.43123869038718
C           -6.27160749400628       -0.97247417628342       -2.41121473308064
C           -4.35825746999480       -2.13941507453760        0.46403372654012
O           -4.89495564699341       -3.37562386018467        0.44329075149155
C           -4.57045353419929       -4.28089578496398        1.47244352923193
C           -3.45080495617132       -1.66432240737613        1.39728092469108
C           -2.95968569466025       -0.36678412211959        1.31493485583303
C           -2.27357615101367        2.20458363800406       -1.20737849494491
C           -1.41114299257377        1.07684547317360       -1.80716452854856
C           -0.10440010352350        0.89371260046240       -1.13695209843685
N            0.39199138068985       -0.26626517558895       -0.73116048821069
C            1.74479200785138       -0.36778020464912       -0.24800751109386
C            2.64695943910815       -1.14672185533129       -1.24008704824781
C            4.05625971618631       -1.31829661052311       -0.87951628107075
C            4.75935853533626        1.98480412083977        0.03117285938738
C            6.07711780469403        1.86671623606280        0.00164685451388
C            6.83640060673901        0.64122936498915        0.08502157539246
O            8.18556084087375        0.58129864119433        0.06720196325134
C            8.93574051831464        1.75027797234494       -0.15945836184784
C            6.15027749556527       -0.54961835725200        0.20768663991530
O            6.85299349428123       -1.68538916540106        0.29295464216128
C            6.17070644356766       -2.90894758186346        0.44459344691740
C            4.63688802071562       -0.50194155574896        0.22179831045591
C           -0.37138258032724       -1.49131101216110       -0.78898203145810
C           -4.04272656424280        2.86989227374506        0.49610312705382
C           -4.68415556554255        2.56753913810544        1.84843351972630
C           -3.66620845071972        4.34675100304770        0.42200857567534
H           -4.60861143128699        0.67252901553867       -1.43015136406410
H           -6.77705048374486       -0.11293486367900       -1.96086183587513
H           -7.00531617463349       -1.59730218427475       -2.91661819380043
H           -5.53303795784498       -0.62373407457808       -3.14041985703157
H           -4.85503958819129       -3.89143496178328        2.45427279388591
H           -5.14448184579886       -5.18088503590496        1.26135585217155
H           -3.50291511603277       -4.52396304927090        1.47068963060172
H           -3.12525192889595       -2.29358248183448        2.20951145733531
H           -2.27833961190429       -0.02286460380624        2.07760602376677
H           -3.10327746145987        2.38491136171631       -1.89030703437826
H           -1.68077026772842        3.11902623741521       -1.16186769077933
H           -1.98416139721019        0.15197585593587       -1.82861212600957
H           -1.20455266496291        1.36838250345011       -2.84492236444588
H           -0.79737722968456        1.54429468385168        0.82222570882081
H            0.55483176340162        1.74807900680382       -1.08494129568411
H            1.73749612135171       -0.89297618133690        0.71288184930222
H            2.15221751743600        0.63424571679791       -0.10096223762632
H            2.65111587366332       -0.61747257776159       -2.20301957037340
H            2.22042419525458       -2.13340714675592       -1.44697712070654
H            4.40025382093733        0.24918391231089        0.18333554364277
H            6.63401906998206        2.79491616766961       -0.08577710643335
H            8.80668003786363        2.47763097551380        0.64941291619538
H            8.67957090257799        2.21332475255224       -1.11809219214037
H            9.97489725848144        1.42774911606943       -0.18461361812305
H            6.91919205353341       -3.68662747805238        0.30997917765620
H            5.73508515471698       -2.99282544085043        1.44581740903130
H            5.37777189043490       -3.00467806615269       -0.30742763386039
H            4.29868245207692       -0.97245719068591        1.17147089606357
H           -0.51852227927304       -1.81684221949244       -1.82092055011417
H           -1.34751434841814       -1.35513972727226       -0.31901676174819
H            0.16110844951753       -2.27200839142770       -0.25131061209307
H           -4.78999131903832        2.67152981817706       -0.28096258855512
H           -3.97685450725309        2.76257966134135        2.64802634878420
H           -5.00884639051598        1.53150848686965        1.90790538082536
H           -5.55198823555074        3.20612161432796        1.99028412955219
H           -2.89897704804286        4.57789423945596        1.15434969406350
H           -3.31504012765230        4.62763627241356       -0.56733007456974
H           -4.54253399819486        4.94880376422021        0.64744782112739
H           -0.87122925048767        2.90920743639524        2.72134869357305

          :  Hamiltonian                  GFN2-xTB          :
         :: total energy            -100.536057531241 Eh    ::
         :: gradient norm              0.002684088346 Eh/a0 ::
         :: HOMO-LUMO gap              1.030510284193 eV    ::
         :: SCC energy              -100.466092629214 Eh    ::
         :: -> dispersion             -0.075254539785 Eh    ::
         :: repulsion energy           1.456150617218 Eh    ::

    * Orbital Energies and Occupations

         #    Occupation            Energy/Eh            Energy/eV
      -------------------------------------------------------------
         1        2.0000           -0.8191024             -22.2889
       ...           ...                  ...                  ...
        78        1.9982           -0.5296417             -14.4123
        79        1.9981           -0.5282478             -14.3744
        80        1.9974           -0.5238589             -14.2549
        81        1.9956           -0.5155100             -14.0277
        82        1.9948           -0.5127583             -13.9529
        83        1.9939           -0.5101736             -13.8825
        84        1.9929           -0.5078281             -13.8187
        85        1.9811           -0.4921401             -13.3918
        86        1.9752           -0.4877952             -13.2736
        87        1.9329           -0.4716926             -12.8354
        88        1.8734           -0.4611438             -12.5484
        89        1.7379           -0.4484294             -12.2024
        90        1.5673           -0.4388574             -11.9419 (HOMO)
        91        0.4977           -0.4009869             -10.9114 (LUMO)
        92        0.3332           -0.3929851             -10.6937
        93        0.1094           -0.3733494             -10.1594
        94        0.0133           -0.3391520              -9.2288
        95        0.0087           -0.3324993              -9.0478
        96        0.0036           -0.3185071              -8.6670
        97        0.0030           -0.3154458              -8.5837
        98        0.0000           -0.2309380              -6.2841
        99        0.0000           -0.1929342              -5.2500
       100                         -0.1366168              -3.7175
       101                         -0.0814744              -2.2170
       ...                                ...                  ...
       171                          1.2723380              34.6221
      -------------------------------------------------------------
                  HL-Gap            0.0378706 Eh            1.0305 eV

     #   Z          covCN         q      C6AA      α(0)
     1   7 N        1.774    -0.267    27.751     7.801
     2   6 C        2.827     0.101    25.747     8.315
     3   6 C        3.907     0.006    20.414     6.422
     4   6 C        2.974     0.002    27.980     8.677
     5   6 C        2.920    -0.081    30.014     8.984
     6   6 C        2.862     0.129    25.174     8.224
     7   8 O        1.706    -0.230    17.819     5.699
     8   6 C        3.644     0.027    20.449     6.500
     9   6 C        2.864     0.128    25.196     8.228
    10   8 O        1.706    -0.229    17.791     5.695
    11   6 C        3.645     0.027    20.458     6.501
    12   6 C        2.913    -0.075    29.879     8.963
    13   6 C        2.921    -0.053    29.326     8.881
    14   6 C        3.812    -0.064    21.727     6.635
    15   6 C        3.802    -0.070    21.833     6.652
    16   6 C        2.843     0.007    27.857     8.650
    17   7 N        2.729     0.016    20.977     6.802
    18   6 C        3.752    -0.027    21.113     6.553
    19   6 C        3.802    -0.057    21.591     6.615
    20   6 C        1.963    -0.144    35.154     9.575
    21   6 C        0.995    -0.219    43.445    11.078
    22   6 C        2.897    -0.037    28.927     8.818
    23   6 C        2.846     0.125    25.253     8.236
    24   8 O        1.706    -0.229    17.798     5.696
    25   6 C        3.642     0.032    20.374     6.489
    26   6 C        2.853     0.119    25.378     8.257
    27   8 O        1.706    -0.195    17.260     5.609
    28   6 C        3.646     0.013    20.689     6.536
    29   6 C        3.816    -0.074    21.906     6.661
    30   6 C        3.701    -0.072    22.051     6.715
    31   6 C        3.853    -0.007    20.669     6.466
    32   6 C        3.756    -0.119    22.827     6.812
    33   6 C        3.755    -0.119    22.838     6.814
    34   1 H        0.926     0.052     2.291     2.367
    35   1 H        0.924     0.054     2.269     2.355
    36   1 H        0.925     0.081     1.964     2.191
    37   1 H        0.924     0.047     2.353     2.399
    38   1 H        0.924     0.055     2.253     2.347
    39   1 H        0.925     0.081     1.964     2.191
    40   1 H        0.924     0.048     2.351     2.398
    41   1 H        0.926     0.052     2.293     2.368
    42   1 H        0.926     0.040     2.455     2.450
    43   1 H        0.925     0.061     2.188     2.313
    44   1 H        0.924     0.055     2.255     2.348
    45   1 H        0.925     0.065     2.138     2.287
    46   1 H        0.924     0.080     1.975     2.197
    47   1 H        0.922     0.006     2.949     2.685
    48   1 H        0.926     0.076     2.026     2.226
    49   1 H        0.924     0.062     2.174     2.306
    50   1 H        0.924     0.080     1.983     2.202
    51   1 H        0.923     0.087     1.905     2.158
    52   1 H        0.924     0.073     2.056     2.242
    53   1 H        0.935     0.149     1.397     1.848
    54   1 H        0.925     0.090     1.884     2.146
    55   1 H        0.924     0.055     2.253     2.347
    56   1 H        0.924     0.055     2.253     2.347
    57   1 H        0.925     0.081     1.964     2.191
    58   1 H        0.925     0.089     1.885     2.147
    59   1 H        0.924     0.056     2.245     2.343
    60   1 H        0.924     0.080     1.982     2.202
    61   1 H        0.921     0.083     1.947     2.182
    62   1 H        0.924     0.076     2.020     2.222
    63   1 H        0.924     0.081     1.968     2.194
    64   1 H        0.925     0.079     1.993     2.208
    65   1 H        0.924     0.037     2.487     2.466
    66   1 H        0.925     0.069     2.097     2.264
    67   1 H        0.925     0.035     2.515     2.480
    68   1 H        0.925     0.052     2.301     2.372
    69   1 H        0.925     0.062     2.176     2.307
    70   1 H        0.925     0.036     2.510     2.477
    71   1 H        0.925     0.055     2.261     2.352
    72   1 H        0.860     0.159     1.343     1.815

Wiberg/Mayer (AO) data.
largest (>0.10) Wiberg bond orders for each atom

     #   Z sym  total        # sym  WBO       # sym  WBO       # sym  WBO
 ---------------------------------------------------------------------------
     1   7 N    3.038 --     2 C    1.958    72 H    0.941
     2   6 C    3.932 --     1 N    1.958     3 C    0.994    47 H    0.903
     3   6 C    3.975 --     2 C    0.994     4 C    0.971    14 C    0.957
                            31 C    0.941
     4   6 C    3.950 --    13 C    1.412     5 C    1.368     3 C    0.971
     5   6 C    3.962 --     6 C    1.401     4 C    1.368    34 H    0.958
     6   6 C    3.906 --     5 C    1.401     9 C    1.222     7 O    1.099
     7   8 O    2.254 --     6 C    1.099     8 C    0.978
     8   6 C    3.932 --     7 O    0.978    36 H    0.977    35 H    0.974
                            37 H    0.973
     9   6 C    3.902 --    12 C    1.392     6 C    1.222    10 O    1.102
    10   8 O    2.253 --     9 C    1.102    11 C    0.977
    11   6 C    3.931 --    10 O    0.977    39 H    0.977    40 H    0.974
                            38 H    0.973
    12   6 C    3.963 --    13 C    1.401     9 C    1.392    41 H    0.964
    13   6 C    3.955 --     4 C    1.412    12 C    1.401    42 H    0.963
    14   6 C    3.970 --    15 C    0.977    44 H    0.973    43 H    0.968
                             3 C    0.957
    15   6 C    3.987 --    16 C    1.060    14 C    0.977    45 H    0.962
                            46 H    0.929
    16   6 C    3.622 --    17 N    1.414    15 C    1.060    48 H    0.956
    17   7 N    3.501 --    16 C    1.414    30 C    0.997    18 C    0.993
    18   6 C    3.932 --    17 N    0.993    50 H    0.965    49 H    0.961
                            19 C    0.945
    19   6 C    3.952 --    20 C    1.106    18 C    0.945    52 H    0.939
                            51 H    0.913
    20   6 C    2.422 --    19 C    1.106    29 C    1.056
    21   6 C    2.289 --    22 C    1.885
    22   6 C    3.943 --    21 C    1.885    23 C    1.104    54 H    0.887
    23   6 C    3.790 --    26 C    1.425    22 C    1.104    24 O    1.092
    24   8 O    2.216 --    23 C    1.092    25 C    0.976
    25   6 C    3.926 --    24 O    0.976    57 H    0.975    56 H    0.971
                            55 H    0.970
    26   6 C    3.760 --    23 C    1.425    27 O    1.142    29 C    0.996
    27   8 O    2.255 --    26 C    1.142    28 C    0.972
    28   6 C    3.904 --    58 H    0.975    27 O    0.972    59 H    0.968
                            60 H    0.947
    29   6 C    3.955 --    20 C    1.056    26 C    0.996    61 H    0.892
                            53 H    0.863
    30   6 C    3.957 --    17 N    0.997    64 H    0.977    62 H    0.966
                            63 H    0.958
    31   6 C    3.972 --    33 C    1.009    32 C    1.008    65 H    0.960
                             3 C    0.941
    32   6 C    3.978 --    31 C    1.008    67 H    0.982    68 H    0.981
                            66 H    0.974
    33   6 C    3.981 --    31 C    1.009    70 H    0.983    71 H    0.980
                            69 H    0.976
    34   1 H    0.996 --     5 C    0.958
    35   1 H    0.993 --     8 C    0.974
    36   1 H    0.993 --     8 C    0.977
    37   1 H    0.994 --     8 C    0.973
    38   1 H    0.993 --    11 C    0.973
    39   1 H    0.993 --    11 C    0.977
    40   1 H    0.993 --    11 C    0.974
    41   1 H    0.996 --    12 C    0.964
    42   1 H    0.998 --    13 C    0.963
    43   1 H    0.995 --    14 C    0.968
    44   1 H    0.996 --    14 C    0.973
    45   1 H    0.995 --    15 C    0.962
    46   1 H    0.972 --    15 C    0.929
    47   1 H    0.986 --     2 C    0.903
    48   1 H    0.994 --    16 C    0.956
    49   1 H    0.990 --    18 C    0.961
    50   1 H    0.993 --    18 C    0.965
    51   1 H    0.962 --    19 C    0.913
    52   1 H    0.977 --    19 C    0.939
    53   1 H    0.968 --    29 C    0.863
    54   1 H    0.969 --    22 C    0.887
    55   1 H    0.989 --    25 C    0.970
    56   1 H    0.989 --    25 C    0.971
    57   1 H    0.992 --    25 C    0.975
    58   1 H    0.990 --    28 C    0.975
    59   1 H    0.987 --    28 C    0.968
    60   1 H    0.986 --    28 C    0.947
    61   1 H    0.959 --    29 C    0.892
    62   1 H    0.986 --    30 C    0.966
    63   1 H    0.987 --    30 C    0.958
    64   1 H    0.993 --    30 C    0.977
    65   1 H    0.992 --    31 C    0.960
    66   1 H    0.991 --    32 C    0.974
    67   1 H    0.997 --    32 C    0.982
    68   1 H    0.994 --    32 C    0.981
    69   1 H    0.993 --    33 C    0.976
    70   1 H    0.997 --    33 C    0.983
    71   1 H    0.994 --    33 C    0.980
    72   1 H    0.969 --     1 N    0.941
 ---------------------------------------------------------------------------

molecular dipole:
                 x           y           z       tot (Debye)
 q only:        0.585      -0.625      -0.709
   full:        1.150      -0.410      -0.577       3.432

           -------------------------------------------------
          | TOTAL ENERGY             -100.536057531241 Eh   |
          | GRADIENT NORM               0.002684088346 Eh/α |
          | HOMO-LUMO GAP               1.030510284193 eV   |
           -------------------------------------------------

 * finished run on 2024/04/06 at 11:14:53.270
