   * xtb version 6.6.1 (8d0f1dd) compiled by 'conda@1efc2f54142f' on 2023-08-01
          program call               : xtb xtbopt.xyz --opt crude --input .xc2 --gfn2

   ID    Z sym.   atoms
    1    7 N      1, 17
    2    6 C      2-6, 8, 9, 11-16, 18-23, 25, 26, 28-33
    3    8 O      7, 10, 24, 27
    4    1 H      34-72
########################################################################
[WARNING] Please study the warnings concerning your input carefully
-1- readin_getIntValue: could not parse ''
########################################################################

          :  Hamiltonian                  GFN2-xTB          :
 * total energy  :   -99.0085561 Eh     change       -0.2040963E-09 Eh
 * total energy  :   -99.1230844 Eh     change       -0.1145283E+00 Eh
 * total energy  :   -99.1286291 Eh     change       -0.5544732E-02 Eh
 * total energy  :   -99.1387629 Eh     change       -0.1013375E-01 Eh
 * total energy  :   -99.1425145 Eh     change       -0.3751609E-02 Eh
 * total energy  :   -99.1500387 Eh     change       -0.7524245E-02 Eh
 * total energy  :   -99.1573841 Eh     change       -0.7345366E-02 Eh
 * total energy  :   -99.1626414 Eh     change       -0.5257250E-02 Eh
 * total energy  :   -99.1667928 Eh     change       -0.4151414E-02 Eh
 * total energy  :   -99.1701791 Eh     change       -0.3386285E-02 Eh
 * total energy  :   -99.1728779 Eh     change       -0.2698865E-02 Eh
 * total energy  :   -99.1754051 Eh     change       -0.2527139E-02 Eh
 * total energy  :   -99.1771755 Eh     change       -0.1770460E-02 Eh
 * total energy  :   -99.1782266 Eh     change       -0.1051069E-02 Eh
 * total energy  :   -99.1786799 Eh     change       -0.4532766E-03 Eh
 * total energy  :   -99.1787659 Eh     change       -0.8605888E-04 Eh
 * total energy  :   -99.1791844 Eh     change       -0.4185082E-03 Eh
   *** GEOMETRY OPTIMIZATION CONVERGED AFTER 17 ITERATIONS ***

 final structure:
================
72
 xtb: 6.6.1 (8d0f1dd)
N           -1.73805656963286        2.86162182888654        2.14451518673628
C           -1.72865028804949        2.09546111968291        1.15799806909491
C           -2.88020169301376        1.91034086411103        0.20809382169595
C           -3.39879881505236        0.48570673174401        0.31345819764431
C           -4.30732238667643        0.00615636392349       -0.63268465209157
C           -4.81147195113563       -1.28169818354611       -0.56375431933889
O           -5.69223091407464       -1.82114902162074       -1.43297193743673
C           -6.25207117945510       -1.00913076066965       -2.43806841270631
C           -4.39166522737144       -2.14234466579436        0.48604306149947
O           -4.91563377095856       -3.38522289885543        0.46312627678601
C           -4.60132957810727       -4.27837411868898        1.50559334353958
C           -3.50255097474737       -1.65521434580184        1.43046517639361
C           -3.01583923954531       -0.35623771295465        1.34549165603661
C           -2.30315434081992        2.17174545044464       -1.20943046812467
C           -1.46588877473214        1.01912960348514       -1.80142133740807
C           -0.17539854334682        0.80430406655787       -1.11074178701769
N            0.29006573623876       -0.36770623274580       -0.68410796617742
C            1.62264472181865       -0.47802870893041       -0.16740678596440
C            2.61407905781529       -1.07511105081662       -1.22102598353188
C            4.00740630358743       -0.98395295549873       -0.83034582307452
C            4.98036450800749        2.15702464791041        0.15524196528854
C            6.24947066232951        1.88415535438210        0.05612041024996
C            6.92964669060796        0.58460276668570        0.07242907326364
O            8.27948888680523        0.47329040739581        0.03680771774174
C            9.10862739385213        1.60123889696681       -0.09877303486202
C            6.23942748348768       -0.60033332975721        0.12372360515314
O            6.96409098390061       -1.73469502707883        0.14808992526510
C            6.30523400697445       -2.97380087862938        0.26687392178186
C            4.75921302028516       -0.63497741865181        0.17699516841881
C           -0.46865063369951       -1.58944550288456       -0.82201647775237
C           -4.06843977426842        2.87917951879100        0.48416858965699
C           -4.70914569874317        2.60285500969648        1.84257407676253
C           -3.67980593670316        4.35189448998742        0.38874716249819
H           -4.63366161046116        0.65669475117740       -1.42711179230975
H           -6.76850598595385       -0.14340108806175       -2.01276611307790
H           -6.97277990645054       -1.63990091240856       -2.95463399794159
H           -5.49400742830051       -0.67022467420830       -3.15199250065150
H           -4.90907820431995       -3.88408623452843        2.47848227800887
H           -5.16121537287280       -5.18637517386119        1.29092128544364
H           -3.53130511081927       -4.50983774306885        1.52684384620339
H           -3.18601739255460       -2.27674342840426        2.25217747438059
H           -2.34597294283832       -0.00397100681014        2.11436496124487
H           -3.12921447850720        2.36543360199469       -1.89315956924822
H           -1.68938288284926        3.07284607095469       -1.17364094200250
H           -2.06204257732075        0.10928413824334       -1.82638445505900
H           -1.24489546250432        1.30455112402191       -2.83812003087431
H           -0.84933417091901        1.49908072120175        0.84972072153799
H            0.49745764657724        1.64610526552885       -1.04059615164143
H            1.62032673506089       -1.11742137767518        0.71948339285492
H            1.98214892424771        0.51356880576773        0.11473657215231
H            2.48014114841465       -0.51815899140857       -2.15737720502560
H            2.35244745817835       -2.11933489359077       -1.42021813636734
H            4.00000170423456        1.76048518542941        0.26850547388335
H            6.94034418364744        2.72144786736703       -0.03319615246611
H            9.01263095363562        2.28115360470407        0.75346248011826
H            8.91325771920510        2.13852851365582       -1.03247171567716
H           10.12213980933814        1.20507718720251       -0.12338452228411
H            7.09488731770147       -3.72201718914298        0.29194145100957
H            5.72220314149714       -3.02682641793943        1.19285172892957
H            5.64391161762816       -3.15884454036380       -0.58370305471804
H            4.36037010223231       -0.41573297938217        1.18360356836294
H           -0.58378418638786       -1.86636965500432       -1.87237809114372
H           -1.45884809309597       -1.47611508045994       -0.37632517582796
H            0.04989628554002       -2.39335457210154       -0.30569565970747
H           -4.81894437367712        2.67551497599159       -0.28843265524993
H           -3.99985917128692        2.80937576292384        2.63753311809481
H           -5.03710708695283        1.56908308699008        1.92052164397571
H           -5.57440332015319        3.24695308337152        1.97482519772477
H           -2.91966852867562        4.58895547378912        1.12650568643624
H           -3.31387000726987        4.61308354246321       -0.60063731486811
H           -4.55420128742815        4.96430789292914        0.59311138056529
H           -0.89100273411639        2.93004051750414        2.70009039779182

          :  Hamiltonian                  GFN2-xTB          :
         :: total energy             -99.179184439438 Eh    ::
         :: gradient norm              0.009419653471 Eh/a0 ::
         :: HOMO-LUMO gap              0.263324109961 eV    ::
         :: SCC energy              -100.554218147138 Eh    ::
         :: -> dispersion             -0.075136690503 Eh    ::
         :: repulsion energy           1.373631843301 Eh    ::

    * Orbital Energies and Occupations

         #    Occupation            Energy/Eh            Energy/eV
      -------------------------------------------------------------
         1        2.0000           -0.8136969             -22.1418
       ...           ...                  ...                  ...
        78        1.9983           -0.5275679             -14.3559
        79        1.9982           -0.5265065             -14.3270
        80        1.9976           -0.5217927             -14.1987
        81        1.9964           -0.5153619             -14.0237
        82        1.9960           -0.5135616             -13.9747
        83        1.9953           -0.5110488             -13.9063
        84        1.9944           -0.5083166             -13.8320
        85        1.9930           -0.5047641             -13.7353
        86        1.9822           -0.4899113             -13.3312
        87        1.9379           -0.4697582             -12.7828
        88        1.8818           -0.4591024             -12.4928
        89        1.6596           -0.4403608             -11.9828
        90        1.2511           -0.4234025             -11.5214 (HOMO)
        91        0.9510           -0.4137255             -11.2580 (LUMO)
        92        0.3412           -0.3902366             -10.6189
        93        0.0144           -0.3372781              -9.1778
        94        0.0107           -0.3325583              -9.0494
        95        0.0038           -0.3162558              -8.6058
        96        0.0031           -0.3129084              -8.5147
        97        0.0011           -0.2962933              -8.0625
        98        0.0000           -0.2318118              -6.3079
        99        0.0000           -0.1904461              -5.1823
       100                         -0.1328541              -3.6151
       101                         -0.0786569              -2.1404
       ...                                ...                  ...
       171                          0.6885968              18.7377
      -------------------------------------------------------------
                  HL-Gap            0.0096770 Eh            0.2633 eV

     #   Z          covCN         q      C6AA      α(0)
     1   7 N        1.774    -0.270    27.825     7.811
     2   6 C        2.827     0.101    25.746     8.314
     3   6 C        3.907     0.006    20.414     6.422
     4   6 C        2.974     0.002    27.984     8.677
     5   6 C        2.920    -0.081    30.020     8.985
     6   6 C        2.862     0.128    25.192     8.227
     7   8 O        1.706    -0.232    17.847     5.704
     8   6 C        3.644     0.028    20.439     6.498
     9   6 C        2.864     0.127    25.215     8.231
    10   8 O        1.706    -0.231    17.823     5.700
    11   6 C        3.645     0.027    20.447     6.499
    12   6 C        2.914    -0.075    29.883     8.964
    13   6 C        2.921    -0.053    29.320     8.880
    14   6 C        3.811    -0.064    21.714     6.633
    15   6 C        3.801    -0.069    21.817     6.650
    16   6 C        2.844     0.002    27.968     8.667
    17   7 N        2.729     0.010    21.082     6.819
    18   6 C        3.753    -0.016    20.911     6.521
    19   6 C        3.799    -0.053    21.529     6.606
    20   6 C        1.970    -0.079    33.235     9.310
    21   6 C        1.911    -0.105    34.007     9.418
    22   6 C        2.889    -0.040    28.988     8.827
    23   6 C        2.837     0.119    25.375     8.255
    24   8 O        1.707    -0.225    17.731     5.685
    25   6 C        3.637     0.028    20.471     6.509
    26   6 C        2.849     0.129    25.170     8.223
    27   8 O        1.706    -0.206    17.423     5.636
    28   6 C        3.645     0.024    20.501     6.508
    29   6 C        2.887    -0.056    29.396     8.889
    30   6 C        3.700    -0.070    22.015     6.710
    31   6 C        3.853    -0.007    20.669     6.466
    32   6 C        3.756    -0.118    22.818     6.811
    33   6 C        3.755    -0.119    22.837     6.814
    34   1 H        0.926     0.052     2.297     2.370
    35   1 H        0.924     0.054     2.276     2.359
    36   1 H        0.925     0.081     1.972     2.196
    37   1 H        0.924     0.046     2.366     2.406
    38   1 H        0.924     0.055     2.260     2.351
    39   1 H        0.925     0.081     1.972     2.196
    40   1 H        0.924     0.047     2.363     2.404
    41   1 H        0.926     0.051     2.302     2.372
    42   1 H        0.926     0.039     2.464     2.455
    43   1 H        0.925     0.060     2.194     2.317
    44   1 H        0.924     0.053     2.281     2.362
    45   1 H        0.925     0.065     2.144     2.290
    46   1 H        0.924     0.077     2.007     2.215
    47   1 H        0.922     0.004     2.993     2.705
    48   1 H        0.926     0.066     2.127     2.281
    49   1 H        0.924     0.065     2.140     2.288
    50   1 H        0.924     0.063     2.169     2.303
    51   1 H        0.924     0.070     2.090     2.261
    52   1 H        0.924     0.068     2.111     2.272
    53   1 H        0.927     0.063     2.160     2.298
    54   1 H        0.925     0.091     1.867     2.137
    55   1 H        0.924     0.057     2.229     2.335
    56   1 H        0.924     0.057     2.232     2.336
    57   1 H        0.925     0.084     1.936     2.176
    58   1 H        0.925     0.086     1.919     2.166
    59   1 H        0.924     0.054     2.276     2.359
    60   1 H        0.924     0.060     2.199     2.319
    61   1 H        0.922     0.057     2.235     2.338
    62   1 H        0.924     0.076     2.024     2.225
    63   1 H        0.924     0.081     1.972     2.196
    64   1 H        0.925     0.078     2.002     2.213
    65   1 H        0.924     0.036     2.496     2.471
    66   1 H        0.925     0.068     2.111     2.272
    67   1 H        0.925     0.035     2.518     2.482
    68   1 H        0.925     0.051     2.309     2.376
    69   1 H        0.925     0.062     2.171     2.304
    70   1 H        0.925     0.035     2.521     2.483
    71   1 H        0.925     0.054     2.272     2.357
    72   1 H        0.860     0.156     1.363     1.829

Wiberg/Mayer (AO) data.
largest (>0.10) Wiberg bond orders for each atom

     #   Z sym  total        # sym  WBO       # sym  WBO       # sym  WBO
 ---------------------------------------------------------------------------
     1   7 N    3.035 --     2 C    1.955    72 H    0.942
     2   6 C    3.931 --     1 N    1.955     3 C    0.994    47 H    0.905
     3   6 C    3.976 --     2 C    0.994     4 C    0.972    14 C    0.956
                            31 C    0.943
     4   6 C    3.952 --    13 C    1.416     5 C    1.367     3 C    0.972
     5   6 C    3.963 --     6 C    1.402     4 C    1.367    34 H    0.958
     6   6 C    3.908 --     5 C    1.402     9 C    1.224     7 O    1.097
     7   8 O    2.253 --     6 C    1.097     8 C    0.978
     8   6 C    3.933 --     7 O    0.978    36 H    0.977    35 H    0.974
                            37 H    0.974
     9   6 C    3.904 --    12 C    1.393     6 C    1.224    10 O    1.099
    10   8 O    2.252 --     9 C    1.099    11 C    0.978
    11   6 C    3.932 --    10 O    0.978    39 H    0.977    40 H    0.974
                            38 H    0.973
    12   6 C    3.964 --    13 C    1.401     9 C    1.393    41 H    0.964
    13   6 C    3.956 --     4 C    1.416    12 C    1.401    42 H    0.963
    14   6 C    3.969 --    15 C    0.977    44 H    0.973    43 H    0.968
                             3 C    0.956
    15   6 C    3.987 --    16 C    1.061    14 C    0.977    45 H    0.962
                            46 H    0.931
    16   6 C    3.591 --    17 N    1.384    15 C    1.061    48 H    0.958
    17   7 N    3.489 --    16 C    1.384    18 C    1.006    30 C    0.997
    18   6 C    3.914 --    17 N    1.006    50 H    0.966    49 H    0.964
                            19 C    0.920
    19   6 C    3.962 --    20 C    1.088    52 H    0.952    51 H    0.947
                            18 C    0.920
    20   6 C    3.153 --    29 C    1.938    19 C    1.088
    21   6 C    3.043 --    22 C    1.934    53 H    0.948
    22   6 C    3.956 --    21 C    1.934    23 C    1.050    54 H    0.906
    23   6 C    3.741 --    26 C    1.456    24 O    1.087    22 C    1.050
    24   8 O    2.206 --    23 C    1.087    25 C    0.976
    25   6 C    3.922 --    24 O    0.976    57 H    0.973    56 H    0.970
                            55 H    0.969
    26   6 C    3.770 --    23 C    1.456    27 O    1.119    29 C    0.995
    27   8 O    2.248 --    26 C    1.119    28 C    0.974
    28   6 C    3.923 --    58 H    0.976    27 O    0.974    59 H    0.973
                            60 H    0.971
    29   6 C    3.945 --    20 C    1.938    26 C    0.995    61 H    0.875
    30   6 C    3.957 --    17 N    0.997    64 H    0.978    62 H    0.967
                            63 H    0.960
    31   6 C    3.973 --    33 C    1.009    32 C    1.008    65 H    0.960
                             3 C    0.943
    32   6 C    3.980 --    31 C    1.008    67 H    0.982    68 H    0.982
                            66 H    0.975
    33   6 C    3.982 --    31 C    1.009    70 H    0.983    71 H    0.980
                            69 H    0.976
    34   1 H    0.996 --     5 C    0.958
    35   1 H    0.994 --     8 C    0.974
    36   1 H    0.993 --     8 C    0.977
    37   1 H    0.994 --     8 C    0.974
    38   1 H    0.993 --    11 C    0.973
    39   1 H    0.993 --    11 C    0.977
    40   1 H    0.994 --    11 C    0.974
    41   1 H    0.996 --    12 C    0.964
    42   1 H    0.998 --    13 C    0.963
    43   1 H    0.995 --    14 C    0.968
    44   1 H    0.996 --    14 C    0.973
    45   1 H    0.995 --    15 C    0.962
    46   1 H    0.970 --    15 C    0.931
    47   1 H    0.987 --     2 C    0.905
    48   1 H    0.995 --    16 C    0.958
    49   1 H    0.991 --    18 C    0.964
    50   1 H    0.995 --    18 C    0.966
    51   1 H    0.983 --    19 C    0.947
    52   1 H    0.992 --    19 C    0.952
    53   1 H    0.976 --    21 C    0.948
    54   1 H    0.943 --    22 C    0.906
    55   1 H    0.988 --    25 C    0.969
    56   1 H    0.988 --    25 C    0.970
    57   1 H    0.990 --    25 C    0.973
    58   1 H    0.992 --    28 C    0.976
    59   1 H    0.989 --    28 C    0.973
    60   1 H    0.988 --    28 C    0.971
    61   1 H    0.908 --    29 C    0.875
    62   1 H    0.985 --    30 C    0.967
    63   1 H    0.987 --    30 C    0.960
    64   1 H    0.994 --    30 C    0.978
    65   1 H    0.993 --    31 C    0.960
    66   1 H    0.991 --    32 C    0.975
    67   1 H    0.997 --    32 C    0.982
    68   1 H    0.994 --    32 C    0.982
    69   1 H    0.993 --    33 C    0.976
    70   1 H    0.997 --    33 C    0.983
    71   1 H    0.994 --    33 C    0.980
    72   1 H    0.971 --     1 N    0.942
 ---------------------------------------------------------------------------

molecular dipole:
                 x           y           z       tot (Debye)
 q only:        1.198      -0.323      -0.761
   full:        1.393      -0.441      -0.693       4.111

           -------------------------------------------------
          | TOTAL ENERGY              -99.179184439438 Eh   |
          | GRADIENT NORM               0.009419653471 Eh/α |
          | HOMO-LUMO GAP               0.263324109961 eV   |
           -------------------------------------------------

 * finished run on 2024/04/06 at 11:14:56.614
