   * xtb version 6.6.1 (8d0f1dd) compiled by 'conda@1efc2f54142f' on 2023-08-01
          program call               : xtb struc.xyz --opt loose --input .xc1 --gfn2

   ID    Z sym.   atoms
    1    7 N      1, 17
    2    6 C      2-6, 8, 9, 11-16, 18-23, 25, 26, 28-33
    3    8 O      7, 10, 24, 27
    4    1 H      34-72
constraining bond 10 38 to    2.6333300 Å, actual value:    2.0763380 Å

          :  Hamiltonian                  GFN2-xTB          :
 * total energy  :   -99.4595253 Eh     change       -0.4035485E-08 Eh
 * total energy  :   -99.5630621 Eh     change       -0.1035368E+00 Eh
 * total energy  :   -99.7203124 Eh     change       -0.1572503E+00 Eh
 * total energy  :   -97.1924259 Eh     change        0.2527886E+01 Eh
 * total energy  :   -99.7878316 Eh     change       -0.2595406E+01 Eh
 * total energy  :   -99.8033492 Eh     change       -0.1551754E-01 Eh
 * total energy  :   -99.8083707 Eh     change       -0.5021522E-02 Eh
 * total energy  :   -99.8126141 Eh     change       -0.4243360E-02 Eh
 * total energy  :   -99.8170376 Eh     change       -0.4423523E-02 Eh
 * total energy  :   -99.8207402 Eh     change       -0.3702575E-02 Eh
 * total energy  :   -99.8438671 Eh     change       -0.2497622E-03 Eh
 * total energy  :   -99.8442376 Eh     change       -0.3704859E-03 Eh
 * total energy  :   -99.8444256 Eh     change       -0.1880155E-03 Eh
 * total energy  :   -99.8447092 Eh     change       -0.2835660E-03 Eh
 * total energy  :   -99.8448824 Eh     change       -0.1732550E-03 Eh
 * total energy  :   -99.8449937 Eh     change       -0.1112612E-03 Eh
 * total energy  :   -99.8450706 Eh     change       -0.7697618E-04 Eh
 * total energy  :   -99.8451338 Eh     change       -0.6318337E-04 Eh
 * total energy  :   -99.8451636 Eh     change       -0.2975897E-04 Eh
   *** GEOMETRY OPTIMIZATION CONVERGED AFTER 33 ITERATIONS ***

 final structure:
================
72
 xtb: 6.6.1 (8d0f1dd)
N           -1.86113326344654        2.98284974889895        2.17888372801436
C           -1.85780889503694        2.15662970428245        1.23903061259848
C           -3.01821475773361        1.92696611307933        0.30625125034923
C           -3.54080833175144        0.51107498459435        0.48243307343560
C           -4.45838239950125       -0.00586415997553       -0.43208387649572
C           -4.96072801138743       -1.29745550348361       -0.30703648067807
O           -5.85368689325378       -1.88454706988693       -1.13088836758194
C           -6.38353029055229       -1.14236362744677       -2.20921755657253
C           -4.50585338020209       -2.07457998443500        0.76659930848230
O           -4.99098524069349       -3.42348163505028        0.86061599391782
C           -3.86640014803881       -4.41125228830438        0.65206285811018
C           -3.60445203529380       -1.57689285241837        1.68855267888572
C           -3.13055120476380       -0.28393419576366        1.54932623741785
C           -2.45231487417717        2.10603986547313       -1.12779570842749
C           -1.53909042327632        0.96389148178046       -1.60663465812802
C           -0.18993597776809        0.99917781661945       -0.99649148901204
N            0.49976451641251       -0.06774050648068       -0.58630496620593
C            1.88965855794726        0.06113631846500       -0.22091106135905
C            2.83218439012659       -0.36263726908726       -1.36454529683755
C            4.26007409966947       -0.15615686647251       -0.94334625663796
C            4.89367166333784        1.05496883322323       -1.16133582360178
C            6.19669923383442        1.26174783355131       -0.73329696393730
C            6.88984742577055        0.25927541550416       -0.07234085891512
O            8.15292979368849        0.35063500861485        0.39197555067087
C            8.86362393116747        1.55272736832029        0.20864202951488
C            6.24905164953906       -0.98840861084637        0.15328495375236
O            6.99767557964978       -1.91069151066007        0.79646461455836
C            6.45702264786990       -3.18738889577574        1.03472127486774
C            4.94682345306637       -1.17184573204955       -0.28116502447922
C           -0.06918942543782       -1.39317045074187       -0.59464634301614
C           -4.20222783000516        2.91428393686891        0.53112405309640
C           -4.83495103777703        2.72389286771567        1.90784225482071
C           -3.80621199599981        4.37674487345655        0.34551439999250
H           -4.79379995347493        0.60677719174193       -1.25130584400542
H           -6.91699990812991       -0.25575610487456       -1.85680642733814
H           -7.08323867706631       -1.81139242073480       -2.70552717258977
H           -5.60130491914806       -0.84933854279679       -2.91463539829069
H           -5.29232795523913       -3.57448809374550        1.56509483954574
H           -4.25891309300920       -5.38338276251520        0.93078720244494
H           -3.56984724731967       -4.35075192091738       -0.38710031526965
H           -3.27056524295274       -2.20350979002671        2.50075016794560
H           -2.45222146385345        0.10818653502522        2.28912424626115
H           -3.28618158484814        2.19453121905708       -1.82392796319963
H           -1.89447083430700        3.04204998666582       -1.16533617215832
H           -2.02670297880520        0.00459726547268       -1.44018508305519
H           -1.41901959143285        1.08863835199129       -2.69129402379168
H           -0.98292645912282        1.54085796864238        0.96109700100520
H            0.33999866782716        1.93884423041801       -1.00714574451751
H            2.08822326042309       -0.55648021138524        0.65915111337598
H            2.09829804934584        1.10107587931201        0.03842749968020
H            2.61001247007894        0.24237684037787       -2.24518458405407
H            2.65870394259991       -1.41071478469872       -1.61173165769468
H            4.37828398091244        1.84964487380104       -1.67931846273727
H            6.66568500138796        2.21295627684443       -0.92432264657828
H            8.36765020330042        2.39189586795162        0.70623623057842
H            8.99528856067594        1.78327360843192       -0.85290545446238
H            9.83778009525535        1.38806455591363        0.66510368019415
H            7.24208620766010       -3.74757432133158        1.53900230683368
H            5.57647283141718       -3.13695718090947        1.68374243991148
H            6.19482250758585       -3.69377821078224        0.10034565132428
H            4.45261978631669       -2.11708535000539       -0.11916712264977
H           -0.27003013302991       -1.73336308878005       -1.61305260322953
H           -1.00337481485315       -1.41346387805566       -0.02839092130692
H            0.62798067596780       -2.08562910139648       -0.13046934228957
H           -4.95856958099412        2.67084916000641       -0.22442252126308
H           -4.11774008369985        2.97299790579799        2.68289669878746
H           -5.16978404582282        1.69884652315876        2.05040180305765
H           -5.69465449431413        3.38131719550319        2.00701296952967
H           -3.02370721548643        4.64621498760043        1.04739682773479
H           -3.46836289582794        4.58065692781339       -0.66689534644182
H           -4.67017510834323        5.00652696626405        0.54035642657636
H           -1.00504288866478        3.07299395609917        2.71817840413381

          :  Hamiltonian                  GFN2-xTB          :
         :: total energy             -99.845163586812 Eh    ::
         :: gradient norm              0.002652661650 Eh/a0 ::
         :: HOMO-LUMO gap              1.050702203102 eV    ::
         :: SCC energy              -100.673671523053 Eh    ::
         :: -> dispersion             -0.075154329232 Eh    ::
         :: repulsion energy           1.439816031884 Eh    ::

    * Orbital Energies and Occupations

         #    Occupation            Energy/Eh            Energy/eV
      -------------------------------------------------------------
         1        2.0000           -0.8766279             -23.8543
       ...           ...                  ...                  ...
        78        1.9993           -0.5263561             -14.3229
        79        1.9992           -0.5251163             -14.2891
        80        1.9991           -0.5215363             -14.1917
        81        1.9988           -0.5178431             -14.0912
        82        1.9983           -0.5122239             -13.9383
        83        1.9981           -0.5107716             -13.8988
        84        1.9979           -0.5090528             -13.8520
        85        1.9976           -0.5069986             -13.7961
        86        1.9947           -0.4941395             -13.4462
        87        1.9841           -0.4768328             -12.9753
        88        1.9672           -0.4651941             -12.6586
        89        1.8858           -0.4447729             -12.1029
        90        1.5722           -0.4209776             -11.4554 (HOMO)
        91        0.4857           -0.3823651             -10.4047 (LUMO)
        92        0.0657           -0.3468103              -9.4372
        93        0.0275           -0.3326941              -9.0531
        94        0.0256           -0.3315869              -9.0229
        95        0.0037           -0.3007150              -8.1829
        96        0.0031           -0.2980662              -8.1108
        97        0.0000           -0.2162161              -5.8835
        98        0.0000           -0.1755032              -4.7757
        99        0.0000           -0.1633660              -4.4454
       100                         -0.1247341              -3.3942
       101                         -0.0864435              -2.3522
       ...                                ...                  ...
       171                          0.5891516              16.0316
      -------------------------------------------------------------
                  HL-Gap            0.0386126 Eh            1.0507 eV

     #   Z          covCN         q      C6AA      α(0)
     1   7 N        1.774    -0.281    28.107     7.851
     2   6 C        2.826     0.096    25.859     8.333
     3   6 C        3.908     0.005    20.431     6.425
     4   6 C        2.975     0.015    27.666     8.628
     5   6 C        2.924    -0.078    29.959     8.976
     6   6 C        2.858     0.138    24.992     8.194
     7   8 O        1.705    -0.246    18.077     5.740
     8   6 C        3.644     0.026    20.475     6.504
     9   6 C        2.859     0.072    26.376     8.418
    10   8 O        2.488    -0.127    16.199     5.436
    11   6 C        2.693    -0.153    31.914     9.246
    12   6 C        2.912    -0.053    29.322     8.879
    13   6 C        2.924    -0.052    29.283     8.874
    14   6 C        3.812    -0.065    21.745     6.637
    15   6 C        3.802    -0.067    21.786     6.645
    16   6 C        2.842    -0.006    28.155     8.696
    17   7 N        2.729     0.000    21.263     6.849
    18   6 C        3.755    -0.015    20.898     6.518
    19   6 C        3.808    -0.070    21.834     6.652
    20   6 C        2.970    -0.003    28.085     8.693
    21   6 C        2.922    -0.051    29.256     8.870
    22   6 C        2.914    -0.069    29.716     8.939
    23   6 C        2.865     0.131    25.130     8.217
    24   8 O        1.706    -0.229    17.794     5.695
    25   6 C        3.645     0.027    20.451     6.499
    26   6 C        2.863     0.131    25.136     8.218
    27   8 O        1.706    -0.231    17.832     5.701
    28   6 C        3.645     0.029    20.416     6.494
    29   6 C        2.920    -0.081    30.018     8.985
    30   6 C        3.699    -0.067    21.950     6.701
    31   6 C        3.853    -0.007    20.669     6.466
    32   6 C        3.756    -0.119    22.827     6.812
    33   6 C        3.755    -0.119    22.842     6.815
    34   1 H        0.926     0.062     2.180     2.309
    35   1 H        0.924     0.055     2.259     2.351
    36   1 H        0.925     0.082     1.963     2.191
    37   1 H        0.924     0.051     2.307     2.375
    38   1 H        0.810     0.343     0.605     1.221
    39   1 H        0.925     0.028     2.615     2.529
    40   1 H        0.925     0.029     2.599     2.521
    41   1 H        0.926     0.068     2.108     2.271
    42   1 H        0.926     0.054     2.269     2.355
    43   1 H        0.925     0.055     2.253     2.347
    44   1 H        0.924     0.056     2.245     2.343
    45   1 H        0.925     0.059     2.213     2.326
    46   1 H        0.923     0.073     2.055     2.242
    47   1 H        0.922     0.004     2.996     2.707
    48   1 H        0.926     0.063     2.161     2.299
    49   1 H        0.924     0.064     2.151     2.293
    50   1 H        0.924     0.065     2.136     2.286
    51   1 H        0.924     0.053     2.287     2.365
    52   1 H        0.924     0.053     2.284     2.363
    53   1 H        0.926     0.042     2.423     2.434
    54   1 H        0.926     0.055     2.258     2.350
    55   1 H        0.924     0.051     2.310     2.377
    56   1 H        0.924     0.053     2.286     2.364
    57   1 H        0.925     0.079     1.989     2.206
    58   1 H        0.925     0.079     1.994     2.208
    59   1 H        0.924     0.045     2.377     2.411
    60   1 H        0.924     0.050     2.326     2.385
    61   1 H        0.926     0.044     2.396     2.421
    62   1 H        0.924     0.072     2.066     2.248
    63   1 H        0.924     0.072     2.060     2.245
    64   1 H        0.925     0.079     1.989     2.205
    65   1 H        0.924     0.032     2.559     2.502
    66   1 H        0.925     0.069     2.096     2.264
    67   1 H        0.925     0.028     2.621     2.532
    68   1 H        0.925     0.050     2.324     2.384
    69   1 H        0.925     0.063     2.163     2.300
    70   1 H        0.925     0.034     2.526     2.485
    71   1 H        0.925     0.053     2.286     2.364
    72   1 H        0.860     0.152     1.384     1.843

Wiberg/Mayer (AO) data.
largest (>0.10) Wiberg bond orders for each atom

     #   Z sym  total        # sym  WBO       # sym  WBO       # sym  WBO
 ---------------------------------------------------------------------------
     1   7 N    3.025 --     2 C    1.946    72 H    0.945
     2   6 C    3.921 --     1 N    1.946     3 C    0.993    47 H    0.909
     3   6 C    3.982 --     2 C    0.993     4 C    0.977    14 C    0.956
                            31 C    0.943
     4   6 C    3.945 --    13 C    1.395     5 C    1.392     3 C    0.977
     5   6 C    3.950 --     4 C    1.392     6 C    1.361    34 H    0.957
     6   6 C    3.925 --     5 C    1.361     9 C    1.304     7 O    1.097
     7   8 O    2.262 --     6 C    1.097     8 C    0.972
     8   6 C    3.930 --    36 H    0.977    37 H    0.976    35 H    0.976
                             7 O    0.972
     9   6 C    3.816 --    12 C    1.411     6 C    1.304    10 O    0.883
    10   8 O    2.567 --     9 C    0.883    38 H    0.867    11 C    0.762
    11   6 C    2.748 --    40 H    0.978    39 H    0.974    10 O    0.762
    12   6 C    3.948 --    13 C    1.424     9 C    1.411    41 H    0.963
    13   6 C    3.968 --    12 C    1.424     4 C    1.395    42 H    0.961
    14   6 C    3.975 --    15 C    0.986    44 H    0.972    43 H    0.969
                             3 C    0.956
    15   6 C    3.989 --    16 C    1.056    14 C    0.986    45 H    0.962
                            46 H    0.931
    16   6 C    3.529 --    17 N    1.364    15 C    1.056    48 H    0.959
    17   7 N    3.437 --    16 C    1.364    30 C    1.001    18 C    0.990
    18   6 C    3.958 --    17 N    0.990    50 H    0.968    19 C    0.966
                            49 H    0.965
    19   6 C    3.976 --    20 C    1.008    51 H    0.973    52 H    0.972
                            18 C    0.966
    20   6 C    3.953 --    21 C    1.417    29 C    1.376    19 C    1.008
    21   6 C    3.958 --    20 C    1.417    22 C    1.412    53 H    0.969
    22   6 C    3.965 --    21 C    1.412    23 C    1.390    54 H    0.964
    23   6 C    3.904 --    22 C    1.390    26 C    1.227    24 O    1.101
    24   8 O    2.254 --    23 C    1.101    25 C    0.978
    25   6 C    3.932 --    24 O    0.978    57 H    0.977    55 H    0.974
                            56 H    0.974
    26   6 C    3.908 --    29 C    1.401    23 C    1.227    27 O    1.095
    27   8 O    2.253 --    26 C    1.095    28 C    0.981
    28   6 C    3.936 --    27 O    0.981    58 H    0.977    59 H    0.974
                            60 H    0.974
    29   6 C    3.964 --    26 C    1.401    20 C    1.376    61 H    0.963
    30   6 C    3.962 --    17 N    1.001    64 H    0.978    62 H    0.968
                            63 H    0.966
    31   6 C    3.980 --    33 C    1.009    32 C    1.009    65 H    0.963
                             3 C    0.943
    32   6 C    3.987 --    31 C    1.009    67 H    0.984    68 H    0.983
                            66 H    0.977
    33   6 C    3.987 --    31 C    1.009    70 H    0.984    71 H    0.981
                            69 H    0.978
    34   1 H    0.996 --     5 C    0.957
    35   1 H    0.996 --     8 C    0.976
    36   1 H    0.993 --     8 C    0.977
    37   1 H    0.997 --     8 C    0.976
    38   1 H    0.882 --    10 O    0.867
    39   1 H    0.987 --    11 C    0.974
    40   1 H    0.984 --    11 C    0.978
    41   1 H    0.994 --    12 C    0.963
    42   1 H    0.997 --    13 C    0.961
    43   1 H    0.996 --    14 C    0.969
    44   1 H    0.996 --    14 C    0.972
    45   1 H    0.995 --    15 C    0.962
    46   1 H    0.968 --    15 C    0.931
    47   1 H    0.993 --     2 C    0.909
    48   1 H    0.996 --    16 C    0.959
    49   1 H    0.991 --    18 C    0.965
    50   1 H    0.994 --    18 C    0.968
    51   1 H    0.996 --    19 C    0.973
    52   1 H    0.996 --    19 C    0.972
    53   1 H    0.998 --    21 C    0.969
    54   1 H    0.996 --    22 C    0.964
    55   1 H    0.993 --    25 C    0.974
    56   1 H    0.993 --    25 C    0.974
    57   1 H    0.993 --    25 C    0.977
    58   1 H    0.993 --    28 C    0.977
    59   1 H    0.995 --    28 C    0.974
    60   1 H    0.994 --    28 C    0.974
    61   1 H    0.997 --    29 C    0.963
    62   1 H    0.985 --    30 C    0.968
    63   1 H    0.987 --    30 C    0.966
    64   1 H    0.994 --    30 C    0.978
    65   1 H    0.996 --    31 C    0.963
    66   1 H    0.994 --    32 C    0.977
    67   1 H    0.999 --    32 C    0.984
    68   1 H    0.996 --    32 C    0.983
    69   1 H    0.995 --    33 C    0.978
    70   1 H    0.998 --    33 C    0.984
    71   1 H    0.995 --    33 C    0.981
    72   1 H    0.973 --     1 N    0.945
 ---------------------------------------------------------------------------

molecular dipole:
                 x           y           z       tot (Debye)
 q only:       -1.491      -0.599      -0.364
   full:       -1.737      -0.898      -0.617       5.211

           -------------------------------------------------
          | TOTAL ENERGY              -99.845163586812 Eh   |
          | GRADIENT NORM               0.002652661650 Eh/α |
          | HOMO-LUMO GAP               1.050702203102 eV   |
           -------------------------------------------------

 * finished run on 2024/04/06 at 11:16:17.295
