   * xtb version 6.6.1 (8d0f1dd) compiled by 'conda@1efc2f54142f' on 2023-08-01
          program call               : xtb xtbopt.xyz --opt crude --input .xc2 --gfn2

   ID    Z sym.   atoms
    1    7 N      1, 17
    2    6 C      2-6, 8, 9, 11-16, 18-23, 25, 26, 28-33
    3    8 O      7, 10, 24, 27
    4    1 H      34-72
########################################################################
[WARNING] Please study the warnings concerning your input carefully
-1- readin_getIntValue: could not parse ''
########################################################################

          :  Hamiltonian                  GFN2-xTB          :
 * total energy  :   -99.2324995 Eh     change       -0.8827783E-10 Eh
 * total energy  :   -99.2801951 Eh     change       -0.4769553E-01 Eh
 * total energy  :   -99.2805289 Eh     change       -0.3338276E-03 Eh
 * total energy  :   -99.2806734 Eh     change       -0.1445207E-03 Eh
   *** GEOMETRY OPTIMIZATION CONVERGED AFTER 4 ITERATIONS ***

 final structure:
================
72
 xtb: 6.6.1 (8d0f1dd)
N           -1.86307353913174        2.98294239069000        2.18038514709045
C           -1.85742194253981        2.15898728199698        1.23830086745598
C           -3.01683469349038        1.92868486104095        0.30460090257405
C           -3.53879245312759        0.51185416354738        0.47780183108401
C           -4.45736454218912       -0.00101578321969       -0.43830377296773
C           -4.95788049590158       -1.29408054454661       -0.31714794784218
O           -5.85217814256868       -1.87994423505493       -1.14069779039774
C           -6.38473937146662       -1.13642453884962       -2.21606226331982
C           -4.50065043920302       -2.07712786821040        0.75257134920175
O           -4.98155751361822       -3.42430224444735        0.82035311209892
C           -3.85486484436224       -4.40553716334285        0.65212606434798
C           -3.60040555811054       -1.58106637639777        1.67624811608105
C           -3.12946309091439       -0.28561189253026        1.54281607683333
C           -2.45037080383351        2.10951434648057       -1.12910491941925
C           -1.53574199495116        0.96862664557193       -1.60865630601236
C           -0.18788577561046        1.00063545178003       -0.99533761650476
N            0.49879134549037       -0.06813698514804       -0.58399284503370
C            1.88868505889016        0.05775137424896       -0.21719416577925
C            2.83107456832119       -0.36418773416964       -1.36154184622967
C            4.25896471139971       -0.15719130086747       -0.94098677220103
C            4.89164067684930        1.05447091312797       -1.15844862088152
C            6.19494323133461        1.26132395577706       -0.73147679490924
C            6.88920059518296        0.25864492448535       -0.07202843017335
O            8.15284023583723        0.35011331739182        0.39063154215662
C            8.86347942892768        1.55192512505751        0.20501351350531
C            6.24905706359320       -0.98931415010057        0.15372172495100
O            6.99836091232749       -1.91170031630676        0.79588175349474
C            6.45766245455592       -3.18841237760330        1.03420061072903
C            4.94659918261441       -1.17289301869751       -0.27989406626718
C           -0.07169992657638       -1.39282573679287       -0.59513464497697
C           -4.20277830237096        2.91362709289436        0.53078503845398
C           -4.83444555761511        2.71981024523251        1.90768067613882
C           -3.81059988901935        4.37718549774123        0.34663444819321
H           -4.79366821425549        0.61570200112624       -1.25424653303197
H           -6.91643047949527       -0.24947725896807       -1.86142319036820
H           -7.08679681149807       -1.80484413740974       -2.71010061691929
H           -5.60466772988946       -0.84366195112262       -2.92435870129437
H           -5.35139127365854       -3.60354781707643        1.70191393025919
H           -4.24096887057991       -5.37684683194602        0.93189123318288
H           -3.53780987320338       -4.35332249136953       -0.38307381769010
H           -3.26798923092949       -2.20965542260413        2.48759742221831
H           -2.45385487862804        0.10626235438654        2.28540612688081
H           -3.28371248216264        2.19665044139667       -1.82580228005348
H           -1.89383646949307        3.04628251196713       -1.16629182439926
H           -2.02435148775329        0.00894508321643       -1.44662008923795
H           -1.41293941020919        1.09673389118254       -2.69288209650062
H           -0.98042253957028        1.54707619855236        0.95893030392648
H            0.34431803233216        1.93905103887871       -1.00515256049168
H            2.08569567595644       -0.56251789300121        0.66135523789107
H            2.09869065524832        1.09666386453374        0.04520897961737
H            2.60794187420059        0.24167432289970       -2.24133147561041
H            2.65805885991593       -1.41209444871933       -1.60980830184319
H            4.37530630050572        1.84933220489126       -1.67517867392570
H            6.66335601260224        2.21289243362403       -0.92215708968819
H            8.36908803673130        2.39142722723652        0.70367063034863
H            8.99224634327824        1.78203562818522       -0.85700432803928
H            9.83882084125893        1.38713464031408        0.65886704787275
H            7.24318122407813       -3.74914805793104        1.53706638745813
H            5.57801174562384       -3.13794125242409        1.68441616574372
H            6.19396360807885       -3.69415840075156        0.09991231934549
H            4.45278647626327       -2.11838865467814       -0.11811711698918
H           -0.26979971028719       -1.73218709691885       -1.61447109382149
H           -1.00762837839530       -1.41254280340315       -0.03157128348314
H            0.62334038410835       -2.08647642920109       -0.12932072529462
H           -4.95893732625391        2.66895295945566       -0.22440808593957
H           -4.11789719787606        2.97070686593862        2.68247555586007
H           -5.16563308797716        1.69348709593081        2.04940556364060
H           -5.69650292946789        3.37390323433096        2.00756702912370
H           -3.02915466030342        4.64808455486966        1.04903928104388
H           -3.47266092376755        4.58247644879416       -0.66545250091050
H           -4.67630229632268        5.00465144464812        0.54134936843329
H           -1.00748479993648        3.07449870289092        2.72022067380809

          :  Hamiltonian                  GFN2-xTB          :
         :: total energy             -99.280673411921 Eh    ::
         :: gradient norm              0.003151506592 Eh/a0 ::
         :: HOMO-LUMO gap              1.040193134390 eV    ::
         :: SCC energy              -100.651188186364 Eh    ::
         :: -> dispersion             -0.075181672366 Eh    ::
         :: repulsion energy           1.369159474525 Eh    ::

    * Orbital Energies and Occupations

         #    Occupation            Energy/Eh            Energy/eV
      -------------------------------------------------------------
         1        2.0000           -0.8674469             -23.6044
       ...           ...                  ...                  ...
        78        1.9993           -0.5258865             -14.3101
        79        1.9993           -0.5245774             -14.2745
        80        1.9991           -0.5210329             -14.1780
        81        1.9988           -0.5173777             -14.0786
        82        1.9983           -0.5118829             -13.9290
        83        1.9982           -0.5103142             -13.8864
        84        1.9979           -0.5085640             -13.8387
        85        1.9977           -0.5064341             -13.7808
        86        1.9946           -0.4932298             -13.4215
        87        1.9844           -0.4763356             -12.9618
        88        1.9676           -0.4646516             -12.6438
        89        1.8875           -0.4442748             -12.0893
        90        1.5663           -0.4199492             -11.4274 (HOMO)
        91        0.4883           -0.3817228             -10.3872 (LUMO)
        92        0.0658           -0.3460899              -9.4176
        93        0.0279           -0.3321781              -9.0390
        94        0.0258           -0.3309097              -9.0045
        95        0.0037           -0.3001808              -8.1683
        96        0.0032           -0.2975343              -8.0963
        97        0.0000           -0.2152017              -5.8559
        98        0.0000           -0.1749691              -4.7612
        99        0.0000           -0.1747963              -4.7564
       100                         -0.1241712              -3.3789
       101                         -0.0822116              -2.2371
       ...                                ...                  ...
       171                          0.5897493              16.0479
      -------------------------------------------------------------
                  HL-Gap            0.0382264 Eh            1.0402 eV

     #   Z          covCN         q      C6AA      α(0)
     1   7 N        1.774    -0.282    28.118     7.852
     2   6 C        2.826     0.096    25.860     8.333
     3   6 C        3.907     0.005    20.431     6.425
     4   6 C        2.975     0.015    27.671     8.629
     5   6 C        2.924    -0.079    29.964     8.977
     6   6 C        2.858     0.138    24.986     8.193
     7   8 O        1.706    -0.246    18.077     5.740
     8   6 C        3.644     0.027    20.466     6.503
     9   6 C        2.860     0.074    26.335     8.412
    10   8 O        2.485    -0.121    16.111     5.421
    11   6 C        2.697    -0.149    31.811     9.231
    12   6 C        2.912    -0.054    29.346     8.883
    13   6 C        2.924    -0.052    29.285     8.874
    14   6 C        3.812    -0.065    21.742     6.637
    15   6 C        3.802    -0.067    21.781     6.645
    16   6 C        2.842    -0.006    28.161     8.697
    17   7 N        2.729    -0.000    21.274     6.850
    18   6 C        3.755    -0.015    20.896     6.518
    19   6 C        3.808    -0.070    21.833     6.652
    20   6 C        2.970    -0.003    28.087     8.693
    21   6 C        2.922    -0.051    29.258     8.870
    22   6 C        2.914    -0.069    29.718     8.939
    23   6 C        2.865     0.131    25.132     8.218
    24   8 O        1.706    -0.229    17.798     5.696
    25   6 C        3.645     0.027    20.449     6.499
    26   6 C        2.863     0.131    25.138     8.218
    27   8 O        1.706    -0.231    17.836     5.702
    28   6 C        3.645     0.029    20.415     6.494
    29   6 C        2.920    -0.081    30.019     8.985
    30   6 C        3.699    -0.066    21.942     6.700
    31   6 C        3.853    -0.007    20.670     6.466
    32   6 C        3.756    -0.119    22.827     6.812
    33   6 C        3.755    -0.119    22.839     6.814
    34   1 H        0.926     0.061     2.186     2.312
    35   1 H        0.924     0.054     2.265     2.354
    36   1 H        0.925     0.081     1.967     2.193
    37   1 H        0.924     0.051     2.312     2.378
    38   1 H        0.804     0.344     0.602     1.219
    39   1 H        0.925     0.026     2.639     2.540
    40   1 H        0.925     0.028     2.609     2.526
    41   1 H        0.926     0.066     2.126     2.280
    42   1 H        0.926     0.054     2.274     2.358
    43   1 H        0.925     0.055     2.256     2.349
    44   1 H        0.924     0.056     2.248     2.345
    45   1 H        0.925     0.058     2.217     2.328
    46   1 H        0.923     0.072     2.059     2.244
    47   1 H        0.922     0.004     2.996     2.707
    48   1 H        0.926     0.063     2.164     2.300
    49   1 H        0.924     0.064     2.153     2.295
    50   1 H        0.924     0.065     2.138     2.287
    51   1 H        0.924     0.053     2.288     2.366
    52   1 H        0.924     0.053     2.286     2.365
    53   1 H        0.926     0.042     2.425     2.435
    54   1 H        0.926     0.055     2.260     2.351
    55   1 H        0.924     0.051     2.311     2.377
    56   1 H        0.924     0.053     2.287     2.365
    57   1 H        0.925     0.079     1.991     2.206
    58   1 H        0.925     0.078     1.995     2.209
    59   1 H        0.924     0.045     2.379     2.412
    60   1 H        0.924     0.049     2.327     2.386
    61   1 H        0.926     0.044     2.398     2.422
    62   1 H        0.924     0.071     2.070     2.250
    63   1 H        0.924     0.072     2.064     2.246
    64   1 H        0.925     0.079     1.992     2.207
    65   1 H        0.924     0.032     2.561     2.503
    66   1 H        0.925     0.069     2.095     2.264
    67   1 H        0.925     0.027     2.624     2.533
    68   1 H        0.925     0.049     2.327     2.385
    69   1 H        0.925     0.063     2.165     2.301
    70   1 H        0.925     0.034     2.527     2.486
    71   1 H        0.925     0.053     2.288     2.365
    72   1 H        0.860     0.152     1.386     1.844

Wiberg/Mayer (AO) data.
largest (>0.10) Wiberg bond orders for each atom

     #   Z sym  total        # sym  WBO       # sym  WBO       # sym  WBO
 ---------------------------------------------------------------------------
     1   7 N    3.024 --     2 C    1.945    72 H    0.945
     2   6 C    3.920 --     1 N    1.945     3 C    0.993    47 H    0.909
     3   6 C    3.982 --     2 C    0.993     4 C    0.977    14 C    0.956
                            31 C    0.943
     4   6 C    3.945 --    13 C    1.396     5 C    1.391     3 C    0.977
     5   6 C    3.950 --     4 C    1.391     6 C    1.361    34 H    0.957
     6   6 C    3.924 --     5 C    1.361     9 C    1.302     7 O    1.097
     7   8 O    2.262 --     6 C    1.097     8 C    0.972
     8   6 C    3.931 --    36 H    0.977    37 H    0.976    35 H    0.976
                             7 O    0.972
     9   6 C    3.820 --    12 C    1.412     6 C    1.302    10 O    0.889
    10   8 O    2.570 --     9 C    0.889    38 H    0.855    11 C    0.772
    11   6 C    2.756 --    40 H    0.976    39 H    0.974    10 O    0.772
    12   6 C    3.948 --    13 C    1.423     9 C    1.412    41 H    0.963
    13   6 C    3.968 --    12 C    1.423     4 C    1.396    42 H    0.961
    14   6 C    3.975 --    15 C    0.986    44 H    0.972    43 H    0.969
                             3 C    0.956
    15   6 C    3.989 --    16 C    1.056    14 C    0.986    45 H    0.962
                            46 H    0.931
    16   6 C    3.527 --    17 N    1.363    15 C    1.056    48 H    0.959
    17   7 N    3.436 --    16 C    1.363    30 C    1.001    18 C    0.990
    18   6 C    3.958 --    17 N    0.990    50 H    0.968    19 C    0.966
                            49 H    0.965
    19   6 C    3.976 --    20 C    1.008    51 H    0.973    52 H    0.972
                            18 C    0.966
    20   6 C    3.953 --    21 C    1.417    29 C    1.376    19 C    1.008
    21   6 C    3.958 --    20 C    1.417    22 C    1.412    53 H    0.969
    22   6 C    3.965 --    21 C    1.412    23 C    1.390    54 H    0.964
    23   6 C    3.905 --    22 C    1.390    26 C    1.228    24 O    1.101
    24   8 O    2.254 --    23 C    1.101    25 C    0.978
    25   6 C    3.932 --    24 O    0.978    57 H    0.977    55 H    0.974
                            56 H    0.974
    26   6 C    3.908 --    29 C    1.401    23 C    1.228    27 O    1.095
    27   8 O    2.253 --    26 C    1.095    28 C    0.981
    28   6 C    3.936 --    27 O    0.981    58 H    0.977    59 H    0.974
                            60 H    0.974
    29   6 C    3.964 --    26 C    1.401    20 C    1.376    61 H    0.963
    30   6 C    3.962 --    17 N    1.001    64 H    0.978    62 H    0.968
                            63 H    0.966
    31   6 C    3.980 --    33 C    1.009    32 C    1.009    65 H    0.963
                             3 C    0.943
    32   6 C    3.987 --    31 C    1.009    67 H    0.984    68 H    0.983
                            66 H    0.977
    33   6 C    3.987 --    31 C    1.009    70 H    0.984    71 H    0.981
                            69 H    0.978
    34   1 H    0.996 --     5 C    0.957
    35   1 H    0.996 --     8 C    0.976
    36   1 H    0.993 --     8 C    0.977
    37   1 H    0.997 --     8 C    0.976
    38   1 H    0.879 --    10 O    0.855
    39   1 H    0.987 --    11 C    0.974
    40   1 H    0.984 --    11 C    0.976
    41   1 H    0.994 --    12 C    0.963
    42   1 H    0.997 --    13 C    0.961
    43   1 H    0.996 --    14 C    0.969
    44   1 H    0.996 --    14 C    0.972
    45   1 H    0.995 --    15 C    0.962
    46   1 H    0.968 --    15 C    0.931
    47   1 H    0.993 --     2 C    0.909
    48   1 H    0.996 --    16 C    0.959
    49   1 H    0.991 --    18 C    0.965
    50   1 H    0.994 --    18 C    0.968
    51   1 H    0.996 --    19 C    0.973
    52   1 H    0.996 --    19 C    0.972
    53   1 H    0.998 --    21 C    0.969
    54   1 H    0.996 --    22 C    0.964
    55   1 H    0.994 --    25 C    0.974
    56   1 H    0.993 --    25 C    0.974
    57   1 H    0.993 --    25 C    0.977
    58   1 H    0.993 --    28 C    0.977
    59   1 H    0.995 --    28 C    0.974
    60   1 H    0.994 --    28 C    0.974
    61   1 H    0.997 --    29 C    0.963
    62   1 H    0.985 --    30 C    0.968
    63   1 H    0.987 --    30 C    0.966
    64   1 H    0.994 --    30 C    0.978
    65   1 H    0.996 --    31 C    0.963
    66   1 H    0.994 --    32 C    0.977
    67   1 H    0.999 --    32 C    0.984
    68   1 H    0.996 --    32 C    0.983
    69   1 H    0.995 --    33 C    0.978
    70   1 H    0.998 --    33 C    0.984
    71   1 H    0.995 --    33 C    0.981
    72   1 H    0.973 --     1 N    0.945
 ---------------------------------------------------------------------------

molecular dipole:
                 x           y           z       tot (Debye)
 q only:       -1.614      -0.683      -0.256
   full:       -1.827      -0.969      -0.538       5.432

           -------------------------------------------------
          | TOTAL ENERGY              -99.280673411921 Eh   |
          | GRADIENT NORM               0.003151506592 Eh/α |
          | HOMO-LUMO GAP               1.040193134390 eV   |
           -------------------------------------------------

 * finished run on 2024/04/06 at 11:16:18.248
