   * xtb version 6.6.1 (8d0f1dd) compiled by 'conda@1efc2f54142f' on 2023-08-01
          program call               : xtb struc.xyz --opt loose --input .xc1 --gfn2

   ID    Z sym.   atoms
    1    6 C      1, 3, 5-7, 10, 11, 14
    2    7 N      2, 4, 9, 13
    3    8 O      8, 12
    4    1 H      15-25
constraining bond 7 19 to    3.7133300 Å, actual value:    2.4428892 Å

          :  Hamiltonian                  GFN2-xTB          :
 * total energy  :   -45.1297428 Eh     change       -0.6650680E-10 Eh
 * total energy  :   -49.3327273 Eh     change       -0.4202985E+01 Eh
 * total energy  :   -55.3506921 Eh     change       -0.6017965E+01 Eh
 * total energy  :   -56.9697360 Eh     change       -0.1619044E+01 Eh
 * total energy  :   -58.3498240 Eh     change       -0.1380088E+01 Eh
 * total energy  :   -58.9210351 Eh     change       -0.5712111E+00 Eh
 * total energy  :   -58.4014604 Eh     change        0.5195747E+00 Eh
 * total energy  :   -59.3977019 Eh     change       -0.9962415E+00 Eh
 * total energy  :   -59.4906994 Eh     change       -0.9299748E-01 Eh
 * total energy  :   -59.5213819 Eh     change       -0.3068253E-01 Eh
 * total energy  :   -59.7435487 Eh     change       -0.1377346E-03 Eh
 * total energy  :   -59.7436349 Eh     change       -0.8618297E-04 Eh
 * total energy  :   -59.7436924 Eh     change       -0.5745321E-04 Eh
 * total energy  :   -59.7436741 Eh     change        0.1821671E-04 Eh
 * total energy  :   -59.7437385 Eh     change       -0.6436856E-04 Eh
 * total energy  :   -59.7437639 Eh     change       -0.2540869E-04 Eh
 * total energy  :   -59.7437895 Eh     change       -0.2557717E-04 Eh
 * total energy  :   -59.7438093 Eh     change       -0.1976950E-04 Eh
 * total energy  :   -59.7438318 Eh     change       -0.2255904E-04 Eh
   *** GEOMETRY OPTIMIZATION CONVERGED AFTER 62 ITERATIONS ***

 final structure:
================
25
 xtb: 6.6.1 (8d0f1dd)
C            3.48523651087790        1.05791454894715        0.01948880630433
N            2.43540070536507        0.07572991507634       -0.00368385442862
C            2.58625783729287       -1.25687045178584       -0.02913812537167
N            1.36745212554952       -1.83477595689217       -0.02987940467526
C            0.40137902579178       -0.84682427394501       -0.00016732250980
C            1.08073449198789        0.37418990667290        0.02049971538066
C           -0.55626997626046        2.20572412591663        0.08124482662711
O            0.73812982348611        1.64727786169690        0.05368836070108
N           -1.58603122357997        1.26709551703811        0.02852368315739
C           -3.03670745469945        1.41112156490417       -0.02275146633360
C           -1.78593163639569       -0.05295374249944        0.02671913264991
O           -3.16053944624775       -0.01333941086270       -0.03216014988137
N           -0.94362133774986       -1.10158100075563       -0.00238563195329
C           -1.47189606157957       -2.45122234842237       -0.01871979223908
H            3.84823481691694        1.20640020691908        1.03908125537777
H            4.31141117012120        0.73106061144451       -0.60960461441587
H            3.09050600378133        2.00218096097351       -0.35209493868920
H            3.52045742721928       -1.77543954947314       -0.05385216000021
H           -0.60170071216669        2.62677741251909        0.10307734255716
H           -3.40894897866495        1.86669134874085       -0.94141068106627
H           -3.48402626010536        1.86620531365260        0.86280516815451
H           -1.15959018450179       -2.99572604679935        0.87419711061352
H           -1.14152766308140       -2.98002658942845       -0.91418219478807
H           -2.55785537105730       -2.38608494527490       -0.02931279633919
H            1.18987788180012       -2.82528643675951       -0.03881065092492

          :  Hamiltonian                  GFN2-xTB          :
         :: total energy             -59.743831825914 Eh    ::
         :: gradient norm              0.003937032271 Eh/a0 ::
         :: HOMO-LUMO gap              1.853550471028 eV    ::
         :: SCC energy               -42.651512795875 Eh    ::
         :: -> dispersion             -0.022184911109 Eh    ::
         :: repulsion energy           2.225793296911 Eh    ::

    * Orbital Energies and Occupations

         #    Occupation            Energy/Eh            Energy/eV
      -------------------------------------------------------------
         1        2.0000           -0.8940345             -24.3279
       ...           ...                  ...                  ...
        25        2.0000           -0.6692019             -18.2099
        26        2.0000           -0.6642876             -18.0762
        27        2.0000           -0.6521238             -17.7452
        28        2.0000           -0.6388670             -17.3845
        29        2.0000           -0.6267416             -17.0545
        30        2.0000           -0.6236974             -16.9717
        31        2.0000           -0.6224413             -16.9375
        32        2.0000           -0.6214745             -16.9112
        33        2.0000           -0.6143057             -16.7161
        34        2.0000           -0.5961669             -16.2225
        35        1.9999           -0.5829857             -15.8638
        36        1.9953           -0.5171942             -14.0736
        37        1.7863           -0.4549453             -12.3797 (HOMO)
        38        0.2034           -0.3868286             -10.5261 (LUMO)
        39        0.0133           -0.3420660              -9.3081
        40        0.0017           -0.3097800              -8.4295
        41        0.0000           -0.2185637              -5.9474
        42        0.0000           -0.1944899              -5.2923
        43        0.0000           -0.1717283              -4.6730
        44                         -0.1442632              -3.9256
        45                         -0.1130325              -3.0758
        46                         -0.1100072              -2.9934
        47                         -0.0882763              -2.4021
        48                         -0.0310790              -0.8457
       ...                                ...                  ...
        67                         10.2684440             279.4186
      -------------------------------------------------------------
                  HL-Gap            0.0681167 Eh            1.8536 eV

     #   Z          covCN         q      C6AA      α(0)
     1   6 C        3.691    -0.079    22.200     6.743
     2   7 N        2.830     0.022    20.856     6.783
     3   6 C        2.987     0.027    27.395     8.586
     4   7 N        2.786    -0.082    22.824     7.096
     5   6 C        3.016     0.039    27.108     8.540
     6   6 C        2.933     0.138    24.987     8.198
     7   6 C        2.699    -0.019    28.469     8.733
     8   8 O        1.706    -0.218    17.614     5.666
     9   7 N        2.804    -0.079    22.768     7.087
    10   6 C        4.244     0.138    18.277     6.072
    11   6 C        3.367     0.205    21.013     7.178
    12   8 O        1.769    -0.260    18.296     5.776
    13   7 N        2.731    -0.035    21.913     6.953
    14   6 C        3.700    -0.068    21.977     6.704
    15   1 H        0.924     0.097     1.811     2.105
    16   1 H        0.925     0.095     1.827     2.114
    17   1 H        0.925     0.109     1.704     2.042
    18   1 H        0.927     0.108     1.710     2.045
    19   1 H        0.938     0.161     1.317     1.794
    20   1 H        0.924     0.104     1.751     2.069
    21   1 H        0.924     0.103     1.754     2.071
    22   1 H        0.924     0.082     1.955     2.187
    23   1 H        0.924     0.083     1.952     2.185
    24   1 H        0.925     0.109     1.704     2.041
    25   1 H        0.860     0.218     1.020     1.582

Wiberg/Mayer (AO) data.
largest (>0.10) Wiberg bond orders for each atom

     #   Z sym  total        # sym  WBO       # sym  WBO       # sym  WBO
 ---------------------------------------------------------------------------
     1   6 C    3.934 --     2 N    0.990    16 H    0.972    17 H    0.970
                            15 H    0.962
     2   7 N    3.583 --     3 C    1.299     6 C    1.120     1 C    0.990
     3   6 C    3.750 --     2 N    1.299     4 N    1.267    18 H    0.957
     4   7 N    3.499 --     3 C    1.267     5 C    1.129    25 H    0.924
     5   6 C    3.857 --     6 C    1.311     4 N    1.129    13 N    1.117
     6   6 C    3.872 --     5 C    1.311     8 O    1.132     2 N    1.120
     7   6 C    3.474 --     9 N    1.127     8 O    0.981    19 H    0.958
                            11 C    0.192
     8   8 O    2.364 --     6 C    1.132     7 C    0.981
     9   7 N    3.551 --    11 C    1.231     7 C    1.127    10 C    0.968
    10   6 C    3.906 --     9 N    0.968    12 O    0.963    21 H    0.958
                            20 H    0.957
    11   6 C    3.775 --     9 N    1.231    13 N    1.176    12 O    1.010
                             7 C    0.192
    12   8 O    2.139 --    11 C    1.010    10 C    0.963
    13   7 N    3.535 --    11 C    1.176     5 C    1.117    14 C    0.973
    14   6 C    3.936 --    13 N    0.973    24 H    0.973    23 H    0.973
                            22 H    0.973
    15   1 H    0.985 --     1 C    0.962
    16   1 H    0.989 --     1 C    0.972
    17   1 H    0.987 --     1 C    0.970
    18   1 H    0.987 --     3 C    0.957
    19   1 H    0.974 --     7 C    0.958
    20   1 H    0.987 --    10 C    0.957
    21   1 H    0.988 --    10 C    0.958
    22   1 H    0.991 --    14 C    0.973
    23   1 H    0.991 --    14 C    0.973
    24   1 H    0.988 --    14 C    0.973
    25   1 H    0.953 --     4 N    0.924
 ---------------------------------------------------------------------------

molecular dipole:
                 x           y           z       tot (Debye)
 q only:        1.006      -0.757      -0.017
   full:        0.949      -1.042      -0.018       3.581

           -------------------------------------------------
          | TOTAL ENERGY              -59.743831825914 Eh   |
          | GRADIENT NORM               0.003937032271 Eh/α |
          | HOMO-LUMO GAP               1.853550471028 eV   |
           -------------------------------------------------

 * finished run on 2024/06/05 at 19:59:14.035
