   * xtb version 6.6.1 (8d0f1dd) compiled by 'conda@1efc2f54142f' on 2023-08-01
          program call               : xtb struc.xyz --opt loose --input .xc1 --gfn2

   ID    Z sym.   atoms
    1    7 N      1, 17
    2    6 C      2-6, 8, 9, 11-16, 18-23, 25, 26, 28-33
    3    8 O      7, 10, 24, 27
    4    1 H      34-72
constraining bond 26 61 to    2.7133300 Å, actual value:    2.1376797 Å

          :  Hamiltonian                  GFN2-xTB          :
 * total energy  :   -99.4632987 Eh     change       -0.4035485E-08 Eh
 * total energy  :   -99.5343870 Eh     change       -0.7108828E-01 Eh
 * total energy  :   -99.6180575 Eh     change       -0.8367050E-01 Eh
 * total energy  :   -99.6711245 Eh     change       -0.5306705E-01 Eh
 * total energy  :   -99.6893769 Eh     change       -0.1825242E-01 Eh
 * total energy  :   -99.7132007 Eh     change       -0.2382374E-01 Eh
 * total energy  :   -99.7241751 Eh     change       -0.1097446E-01 Eh
 * total energy  :   -99.7421323 Eh     change       -0.1795715E-01 Eh
 * total energy  :   -99.7514814 Eh     change       -0.9349102E-02 Eh
 * total energy  :   -99.7632245 Eh     change       -0.1174307E-01 Eh
 * total energy  :   -99.8516710 Eh     change       -0.9334375E-04 Eh
 * total energy  :   -99.8517479 Eh     change       -0.7686229E-04 Eh
 * total energy  :   -99.8518133 Eh     change       -0.6545407E-04 Eh
 * total energy  :   -99.8518703 Eh     change       -0.5694626E-04 Eh
 * total energy  :   -99.8519287 Eh     change       -0.5846060E-04 Eh
 * total energy  :   -99.8520414 Eh     change       -0.1126978E-03 Eh
 * total energy  :   -99.8520944 Eh     change       -0.5301325E-04 Eh
 * total energy  :   -99.8521631 Eh     change       -0.6863832E-04 Eh
 * total energy  :   -99.8521817 Eh     change       -0.1866932E-04 Eh
   *** GEOMETRY OPTIMIZATION CONVERGED AFTER 48 ITERATIONS ***

 final structure:
================
72
 xtb: 6.6.1 (8d0f1dd)
N           -1.95152157305677        2.86383737783613        2.27217251535195
C           -1.89720669966797        2.13857307578743        1.25731359673835
C           -3.03476172122812        1.92421123446651        0.29722836434790
C           -3.48170571052125        0.47163620195487        0.35829103902638
C           -4.37064336140080       -0.02185142293728       -0.59891295181628
C           -4.82359819480951       -1.32997681578356       -0.55985695158502
O           -5.68440424863646       -1.88346035203587       -1.43897094153360
C           -6.26042112326687       -1.07905556835595       -2.44084308443584
C           -4.37153249443363       -2.19680570239076        0.47185509492401
O           -4.86147612573063       -3.45176260146738        0.43109890270772
C           -4.53335680573773       -4.34925479341303        1.46606341929916
C           -3.49022582243701       -1.70020701049167        1.41899435422714
C           -3.05376471857975       -0.38264182690459        1.36263535697599
C           -2.46847387645176        2.25085760026999       -1.10963319079284
C           -1.52341197004173        1.17945999610217       -1.68092526349377
C           -0.19397703649557        1.14775780091837       -1.03193089323095
N            0.46651735833328        0.05093804136323       -0.68816624031011
C            1.85779394236073        0.12556395656567       -0.30567979180963
C            2.78263049151591       -0.17444439517225       -1.49838066528196
C            4.22189238678751       -0.12209819612047       -1.05710934016001
C            4.86673689017838        1.13678088314158       -0.92274711820862
C            6.21386191514438        1.21712538783708       -0.59100675103266
C            6.95265517428897        0.09014688277950       -0.31936127699834
O            8.26356562291610        0.01897474444931       -0.11240634363906
C            9.04237471896731        1.19994740595281       -0.12690990820716
C            6.29491925483726       -1.28876559598023       -0.22117354058308
O            6.25415649126864       -1.57492670999022        1.20358735514191
C            6.08487059634828       -2.94148234612665        1.47766992691840
C            4.89944623696180       -1.23086001490845       -0.71613248353408
C           -0.12551195126162       -1.26179424289487       -0.78692864288458
C           -4.27084646577940        2.82525890737959        0.59138180869134
C           -4.90533064943021        2.48187539508754        1.93696521225250
C           -3.95455134953591        4.31726827113676        0.53636622254738
H           -4.72541558597554        0.63245389911653       -1.37781605675175
H           -6.81607947503881       -0.23993292500888       -2.01167886559043
H           -6.94876308376056       -1.72952133555495       -2.97677609935962
H           -5.50544780157436       -0.70135669029748       -3.13821435245004
H           -4.85076468582645       -3.96895699904394        2.44146172843213
H           -5.07678940778275       -5.26488800272763        1.24150210715814
H           -3.45975693963544       -4.56195858632502        1.48819432768573
H           -3.14341925166655       -2.32941841449292        2.22247238176385
H           -2.39244319906828       -0.02445643726571        2.13630592479276
H           -3.30102600375645        2.37010469921914       -1.80215504081583
H           -1.94078771862520        3.20419307170614       -1.06298457510805
H           -2.00995640312264        0.20636428667011       -1.64657362590459
H           -1.36114880430418        1.43425598407508       -2.73670534578178
H           -0.98297836490933        1.60745931170763        0.92769808225781
H            0.34795079353829        2.07973317092909       -0.96168393676981
H            2.05388580940250       -0.59634973208557        0.49050462624990
H            2.07561680222752        1.12470848031645        0.07766940311497
H            2.60419452133667        0.56083881098069       -2.28526191300605
H            2.56369595711445       -1.16770837016507       -1.88966840003611
H            4.30696098958840        2.04194071426524       -1.10448695812892
H            6.68200955470178        2.18961693547998       -0.56693305280402
H            8.73127526552682        1.88285890873947        0.66811104215809
H            8.97357852267931        1.70494230135329       -1.09473976705122
H           10.06782640136493        0.87995962686874        0.04754352722027
H            6.05463368019423       -3.02849328946407        2.56250438682164
H            5.14338789935164       -3.31203544982853        1.05408607419468
H            6.91605023970628       -3.54061804305275        1.08505280087768
H            6.76914267692886       -1.87007555050968       -0.61163773949795
H           -0.30857634868555       -1.53712150198793       -1.82772228815290
H           -1.07311224550245       -1.29289083094299       -0.24345622302427
H            0.55033944938460       -1.99250730218308       -0.35017236106201
H           -5.00576207370572        2.60583346345421       -0.19181017220647
H           -4.21266142528731        2.70307725267135        2.74255554081769
H           -5.18068471487272        1.43113019285522        1.98545190144613
H           -5.80313279254451        3.07766984525509        2.07863630206134
H           -3.20261512832141        4.57073009356223        1.27714629298399
H           -3.60851361740050        4.62389234548380       -0.44713886977296
H           -4.85626884284776        4.88058228548260        0.76168538673790
H           -1.11262823324048        2.95925773517611        2.83575085948808

          :  Hamiltonian                  GFN2-xTB          :
         :: total energy             -99.852181750363 Eh    ::
         :: gradient norm              0.001933088620 Eh/a0 ::
         :: HOMO-LUMO gap              0.538788323631 eV    ::
         :: SCC energy              -100.664013052314 Eh    ::
         :: -> dispersion             -0.074580491213 Eh    ::
         :: repulsion energy           1.433302276619 Eh    ::

    * Orbital Energies and Occupations

         #    Occupation            Energy/Eh            Energy/eV
      -------------------------------------------------------------
         1        2.0000           -0.8227843             -22.3891
       ...           ...                  ...                  ...
        78        1.9986           -0.5318051             -14.4712
        79        1.9982           -0.5278167             -14.3626
        80        1.9982           -0.5272259             -14.3465
        81        1.9974           -0.5214995             -14.1907
        82        1.9958           -0.5140998             -13.9894
        83        1.9951           -0.5115234             -13.9193
        84        1.9942           -0.5088619             -13.8468
        85        1.9805           -0.4896549             -13.3242
        86        1.9791           -0.4885954             -13.2954
        87        1.9699           -0.4827119             -13.1353
        88        1.9354           -0.4703484             -12.7988
        89        1.8687           -0.4585491             -12.4778
        90        1.2484           -0.4245435             -11.5524 (HOMO)
        91        0.6447           -0.4047434             -11.0136 (LUMO)
        92        0.3823           -0.3936647             -10.7122
        93        0.0140           -0.3380060              -9.1976
        94        0.0034           -0.3156606              -8.5896
        95        0.0028           -0.3125475              -8.5049
        96        0.0015           -0.3023374              -8.2270
        97        0.0000           -0.2391930              -6.5088
        98        0.0000           -0.1899257              -5.1681
        99                         -0.1347831              -3.6676
       100                         -0.0754965              -2.0544
       101                         -0.0671287              -1.8267
       ...                                ...                  ...
       171                          0.8127905              22.1172
      -------------------------------------------------------------
                  HL-Gap            0.0198001 Eh            0.5388 eV

     #   Z          covCN         q      C6AA      α(0)
     1   7 N        1.774    -0.268    27.776     7.804
     2   6 C        2.827     0.102    25.741     8.314
     3   6 C        3.908     0.006    20.414     6.422
     4   6 C        2.974     0.002    27.980     8.677
     5   6 C        2.920    -0.080    30.007     8.983
     6   6 C        2.862     0.129    25.167     8.223
     7   8 O        1.706    -0.230    17.814     5.698
     8   6 C        3.644     0.028    20.446     6.499
     9   6 C        2.864     0.129    25.180     8.225
    10   8 O        1.706    -0.228    17.785     5.694
    11   6 C        3.645     0.027    20.460     6.501
    12   6 C        2.914    -0.074    29.852     8.959
    13   6 C        2.921    -0.053    29.312     8.878
    14   6 C        3.812    -0.065    21.728     6.635
    15   6 C        3.802    -0.070    21.830     6.652
    16   6 C        2.844     0.008    27.823     8.645
    17   7 N        2.729     0.015    21.002     6.806
    18   6 C        3.756    -0.017    20.930     6.523
    19   6 C        3.808    -0.069    21.809     6.648
    20   6 C        2.953     0.012    27.738     8.638
    21   6 C        2.925    -0.033    28.821     8.804
    22   6 C        2.898    -0.069    29.716     8.938
    23   6 C        2.854     0.147    24.799     8.162
    24   8 O        1.705    -0.199    17.325     5.620
    25   6 C        3.646     0.019    20.595     6.522
    26   6 C        3.755     0.104    18.917     6.202
    27   8 O        1.697    -0.306    19.099     5.900
    28   6 C        3.644     0.038    20.276     6.472
    29   6 C        1.992    -0.119    34.358     9.466
    30   6 C        3.700    -0.072    22.040     6.714
    31   6 C        3.853    -0.007    20.671     6.467
    32   6 C        3.756    -0.118    22.823     6.812
    33   6 C        3.755    -0.119    22.833     6.813
    34   1 H        0.926     0.052     2.299     2.371
    35   1 H        0.924     0.054     2.273     2.358
    36   1 H        0.925     0.081     1.967     2.193
    37   1 H        0.924     0.047     2.359     2.402
    38   1 H        0.924     0.055     2.255     2.348
    39   1 H        0.925     0.081     1.966     2.193
    40   1 H        0.924     0.049     2.335     2.389
    41   1 H        0.926     0.053     2.284     2.363
    42   1 H        0.926     0.040     2.452     2.449
    43   1 H        0.925     0.060     2.196     2.317
    44   1 H        0.924     0.054     2.276     2.359
    45   1 H        0.925     0.067     2.118     2.276
    46   1 H        0.923     0.080     1.980     2.200
    47   1 H        0.922     0.006     2.956     2.689
    48   1 H        0.926     0.069     2.091     2.261
    49   1 H        0.924     0.074     2.042     2.234
    50   1 H        0.924     0.066     2.127     2.281
    51   1 H        0.924     0.051     2.305     2.374
    52   1 H        0.925     0.062     2.174     2.306
    53   1 H        0.926     0.050     2.314     2.379
    54   1 H        0.926     0.061     2.186     2.312
    55   1 H        0.924     0.067     2.123     2.279
    56   1 H        0.924     0.063     2.164     2.300
    57   1 H        0.925     0.089     1.886     2.147
    58   1 H        0.925     0.071     2.074     2.252
    59   1 H        0.924     0.043     2.416     2.431
    60   1 H        0.924     0.043     2.407     2.426
    61   1 H        0.930     0.101     1.774     2.083
    62   1 H        0.924     0.077     2.010     2.217
    63   1 H        0.924     0.079     1.985     2.203
    64   1 H        0.925     0.084     1.936     2.176
    65   1 H        0.924     0.037     2.488     2.467
    66   1 H        0.925     0.068     2.103     2.268
    67   1 H        0.925     0.035     2.511     2.478
    68   1 H        0.925     0.051     2.305     2.374
    69   1 H        0.925     0.062     2.181     2.310
    70   1 H        0.925     0.034     2.523     2.484
    71   1 H        0.925     0.054     2.265     2.354
    72   1 H        0.860     0.157     1.352     1.822

Wiberg/Mayer (AO) data.
largest (>0.10) Wiberg bond orders for each atom

     #   Z sym  total        # sym  WBO       # sym  WBO       # sym  WBO
 ---------------------------------------------------------------------------
     1   7 N    3.039 --     2 C    1.957    72 H    0.941
     2   6 C    3.930 --     1 N    1.957     3 C    0.994    47 H    0.901
     3   6 C    3.976 --     2 C    0.994     4 C    0.970    14 C    0.957
                            31 C    0.943
     4   6 C    3.948 --    13 C    1.414     5 C    1.368     3 C    0.970
     5   6 C    3.962 --     6 C    1.401     4 C    1.368    34 H    0.958
     6   6 C    3.905 --     5 C    1.401     9 C    1.222     7 O    1.099
     7   8 O    2.254 --     6 C    1.099     8 C    0.978
     8   6 C    3.932 --     7 O    0.978    36 H    0.977    35 H    0.973
                            37 H    0.973
     9   6 C    3.901 --    12 C    1.391     6 C    1.222    10 O    1.102
    10   8 O    2.252 --     9 C    1.102    11 C    0.977
    11   6 C    3.931 --    10 O    0.977    39 H    0.977    40 H    0.973
                            38 H    0.973
    12   6 C    3.962 --    13 C    1.404     9 C    1.391    41 H    0.964
    13   6 C    3.954 --     4 C    1.414    12 C    1.404    42 H    0.962
    14   6 C    3.974 --    15 C    0.983    44 H    0.972    43 H    0.968
                             3 C    0.957
    15   6 C    3.986 --    16 C    1.059    14 C    0.983    45 H    0.961
                            46 H    0.926
    16   6 C    3.603 --    17 N    1.412    15 C    1.059    48 H    0.957
    17   7 N    3.487 --    16 C    1.412    30 C    0.998    18 C    0.986
    18   6 C    3.955 --    17 N    0.986    19 C    0.968    50 H    0.967
                            49 H    0.964
    19   6 C    3.963 --    20 C    0.992    52 H    0.973    51 H    0.972
                            18 C    0.968
    20   6 C    3.936 --    29 C    1.630    21 C    1.215    19 C    0.992
    21   6 C    3.643 --    22 C    1.393    20 C    1.215    53 H    0.961
    22   6 C    3.958 --    23 C    1.444    21 C    1.393    54 H    0.952
    23   6 C    3.663 --    22 C    1.444    24 O    1.172    26 C    0.935
    24   8 O    2.280 --    23 C    1.172    25 C    0.960
    25   6 C    3.915 --    57 H    0.976    56 H    0.972    55 H    0.971
                            24 O    0.960
    26   6 C    3.914 --    29 C    1.021    61 H    0.949    23 C    0.935
                            27 O    0.921
    27   8 O    2.015 --    28 C    0.996    26 C    0.921
    28   6 C    3.933 --    27 O    0.996    60 H    0.973    58 H    0.973
                            59 H    0.972
    29   6 C    2.830 --    20 C    1.630    26 C    1.021
    30   6 C    3.957 --    17 N    0.998    64 H    0.977    62 H    0.966
                            63 H    0.962
    31   6 C    3.972 --    33 C    1.009    32 C    1.008    65 H    0.960
                             3 C    0.943
    32   6 C    3.979 --    31 C    1.008    67 H    0.982    68 H    0.981
                            66 H    0.974
    33   6 C    3.982 --    31 C    1.009    70 H    0.983    71 H    0.980
                            69 H    0.976
    34   1 H    0.996 --     5 C    0.958
    35   1 H    0.993 --     8 C    0.973
    36   1 H    0.993 --     8 C    0.977
    37   1 H    0.994 --     8 C    0.973
    38   1 H    0.993 --    11 C    0.973
    39   1 H    0.993 --    11 C    0.977
    40   1 H    0.993 --    11 C    0.973
    41   1 H    0.995 --    12 C    0.964
    42   1 H    0.998 --    13 C    0.962
    43   1 H    0.995 --    14 C    0.968
    44   1 H    0.996 --    14 C    0.972
    45   1 H    0.995 --    15 C    0.961
    46   1 H    0.970 --    15 C    0.926
    47   1 H    0.986 --     2 C    0.901
    48   1 H    0.995 --    16 C    0.957
    49   1 H    0.991 --    18 C    0.964
    50   1 H    0.994 --    18 C    0.967
    51   1 H    0.997 --    19 C    0.972
    52   1 H    0.995 --    19 C    0.973
    53   1 H    0.986 --    21 C    0.961
    54   1 H    0.986 --    22 C    0.952
    55   1 H    0.990 --    25 C    0.971
    56   1 H    0.990 --    25 C    0.972
    57   1 H    0.991 --    25 C    0.976
    58   1 H    0.992 --    28 C    0.973
    59   1 H    0.992 --    28 C    0.972
    60   1 H    0.992 --    28 C    0.973
    61   1 H    0.975 --    26 C    0.949
    62   1 H    0.985 --    30 C    0.966
    63   1 H    0.987 --    30 C    0.962
    64   1 H    0.993 --    30 C    0.977
    65   1 H    0.992 --    31 C    0.960
    66   1 H    0.991 --    32 C    0.974
    67   1 H    0.997 --    32 C    0.982
    68   1 H    0.994 --    32 C    0.981
    69   1 H    0.993 --    33 C    0.976
    70   1 H    0.997 --    33 C    0.983
    71   1 H    0.994 --    33 C    0.980
    72   1 H    0.970 --     1 N    0.941
 ---------------------------------------------------------------------------

molecular dipole:
                 x           y           z       tot (Debye)
 q only:        1.106       0.262      -1.105
   full:        1.642       0.380      -1.283       5.385

           -------------------------------------------------
          | TOTAL ENERGY              -99.852181750363 Eh   |
          | GRADIENT NORM               0.001933088620 Eh/α |
          | HOMO-LUMO GAP               0.538788323631 eV   |
           -------------------------------------------------

 * finished run on 2024/04/06 at 11:14:05.559
