   * xtb version 6.6.1 (8d0f1dd) compiled by 'conda@1efc2f54142f' on 2023-08-01
          program call               : xtb xtbopt.xyz --opt crude --input .xc2 --gfn2

   ID    Z sym.   atoms
    1    7 N      1, 17
    2    6 C      2-6, 8, 9, 11-16, 18-23, 25, 26, 28-33
    3    8 O      7, 10, 24, 27
    4    1 H      34-72
########################################################################
[WARNING] Please study the warnings concerning your input carefully
-1- readin_getIntValue: could not parse ''
########################################################################

          :  Hamiltonian                  GFN2-xTB          :
 * total energy  :   -99.2294056 Eh     change       -0.7663914E-10 Eh
 * total energy  :   -99.2903961 Eh     change       -0.6099055E-01 Eh
 * total energy  :   -99.2919856 Eh     change       -0.1589519E-02 Eh
 * total energy  :   -99.2927821 Eh     change       -0.7964465E-03 Eh
 * total energy  :   -99.2928437 Eh     change       -0.6163896E-04 Eh
   *** GEOMETRY OPTIMIZATION CONVERGED AFTER 5 ITERATIONS ***

 final structure:
================
72
 xtb: 6.6.1 (8d0f1dd)
N           -1.95079714990757        2.86518483004956        2.27169458582583
C           -1.89825900829080        2.13948428670480        1.25706658930299
C           -3.03650277130997        1.92495826140853        0.29801839133007
C           -3.48221384368274        0.47199904731203        0.35871088197179
C           -4.37053368945394       -0.02194282492395       -0.59885396277140
C           -4.82260207369356       -1.33034295401284       -0.56013101561416
O           -5.68294592628207       -1.88411477118922       -1.43952594485303
C           -6.25952226289658       -1.07940031147949       -2.44083474675468
C           -4.37018391997587       -2.19711110172615        0.47147604727573
O           -4.85950053961642       -3.45227956866399        0.43040238915552
C           -4.53143067982163       -4.34976001169692        1.46542667075564
C           -3.48933204091611       -1.70015210061438        1.41880594522169
C           -3.05381616426254       -0.38222266194248        1.36288410733767
C           -2.47140646975370        2.25314422981092       -1.10899174451659
C           -1.52762966740579        1.18190712497345       -1.68218625275898
C           -0.19843804755589        1.14898951476879       -1.03291636645583
N            0.46220619088039        0.05155635886407       -0.69164882076199
C            1.85313339943400        0.12697942850378       -0.30889325317265
C            2.78034155916045       -0.16841004696009       -1.50123720369507
C            4.21715451865456       -0.11616974849821       -1.05237729474351
C            4.86589969636727        1.14264526437375       -0.93096688262199
C            6.21199191671310        1.22560138009957       -0.59526497114443
C            6.94528800626413        0.10011570614924       -0.29938422697561
O            8.25428147300444        0.02483022748177       -0.08824444545432
C            9.04230761267582        1.19907320335726       -0.12417310159516
C            6.26375473404406       -1.25158930041801       -0.16808233382607
O            6.26833198438423       -1.57252023315815        1.22337077855591
C            6.08535655996937       -2.93939216475947        1.48759393699962
C            4.88691463083308       -1.22342815812752       -0.68619429865442
C           -0.12879937527335       -1.26130370182543       -0.79296225517425
C           -4.27282329204879        2.82507841879816        0.59342367325033
C           -4.90566263146745        2.48142875218502        1.93967325772474
C           -3.95719561017617        4.31720671977802        0.53800518462413
H           -4.72529664510336        0.63240440369167       -1.37772248213259
H           -6.81549682575352       -0.24077287119294       -2.01102187550946
H           -6.94766359201867       -1.72982896636550       -2.97709256086694
H           -5.50482878698974       -0.70090505728822       -3.13810952112153
H           -4.84951455384613       -3.96971789932134        2.44069721823793
H           -5.07433637396449       -5.26560153290873        1.24044363821424
H           -3.45774967180647       -4.56193654164195        1.48803439127766
H           -3.14216403762370       -2.32933148368135        2.22215300915770
H           -2.39293862661095       -0.02388437448908        2.13685302639029
H           -3.30447871644318        2.37437381629945       -1.80049581600017
H           -1.94273593333118        3.20591560889836       -1.06130153639944
H           -2.01459783927176        0.20894994808967       -1.64872281495850
H           -1.36505277599125        1.43763888536467       -2.73768533289849
H           -0.98492426054926        1.60677586147721        0.92721607279160
H            0.34334696614295        2.08089459268554       -0.96059225205086
H            2.05011542406722       -0.59693006636566        0.48523837847910
H            2.06919063732763        1.12548409039517        0.07752284886512
H            2.60262384026606        0.56836399581643       -2.28698490083628
H            2.56319746836246       -1.16112252554722       -1.89535502856389
H            4.30756723651871        2.04667156152083       -1.12311056599215
H            6.68260532107435        2.19724369168804       -0.58733791610255
H            8.73923140673121        1.89817138957119        0.65937096127007
H            8.97669996023829        1.68815939311224       -1.09979957463471
H           10.06517357925415        0.87348154856714        0.05396346085051
H            6.06101245561617       -3.03858821681551        2.57076354626477
H            5.14262832249517       -3.30078320346801        1.06062415570016
H            6.91091999078136       -3.53595364845517        1.08185731361414
H            6.87814719362508       -2.00324884200167       -0.69719473461468
H           -0.31283009953018       -1.53430681942139       -1.83414023200174
H           -1.07573815007130       -1.29472681665514       -0.24851235565639
H            0.54833363161449       -1.99234576764968       -0.35886586474078
H           -5.00834358277642        2.60514765477094       -0.18903222626333
H           -4.21260826468518        2.70398677575923        2.74454916982971
H           -5.17937271517097        1.43029847408356        1.98881621601784
H           -5.80422393410959        3.07593461357483        2.08182578412089
H           -3.20463017094909        4.57090473496515        1.27807150627547
H           -3.61211316980939        4.62390415849747       -0.44583312546565
H           -4.85889136910224        4.88022350390772        0.76409874270612
H           -1.11111486020439        2.95915235839681        2.83439280155972

          :  Hamiltonian                  GFN2-xTB          :
         :: total energy             -99.292843713354 Eh    ::
         :: gradient norm              0.002169427596 Eh/a0 ::
         :: HOMO-LUMO gap              0.559192605712 eV    ::
         :: SCC energy              -100.643753915077 Eh    ::
         :: -> dispersion             -0.074588034469 Eh    ::
         :: repulsion energy           1.349599205023 Eh    ::

    * Orbital Energies and Occupations

         #    Occupation            Energy/Eh            Energy/eV
      -------------------------------------------------------------
         1        2.0000           -0.8224385             -22.3797
       ...           ...                  ...                  ...
        78        1.9986           -0.5317168             -14.4688
        79        1.9982           -0.5278240             -14.3628
        80        1.9982           -0.5272438             -14.3470
        81        1.9974           -0.5215031             -14.1908
        82        1.9958           -0.5141044             -13.9895
        83        1.9951           -0.5115307             -13.9195
        84        1.9942           -0.5088755             -13.8472
        85        1.9805           -0.4896598             -13.3243
        86        1.9774           -0.4872615             -13.2591
        87        1.9712           -0.4834152             -13.1544
        88        1.9357           -0.4703935             -12.8001
        89        1.8689           -0.4585580             -12.4780
        90        1.2589           -0.4248785             -11.5615 (HOMO)
        91        0.6338           -0.4043285             -11.0023 (LUMO)
        92        0.3827           -0.3936667             -10.7122
        93        0.0140           -0.3380082              -9.1977
        94        0.0034           -0.3156662              -8.5897
        95        0.0028           -0.3125523              -8.5050
        96        0.0015           -0.3025979              -8.2341
        97        0.0000           -0.2391270              -6.5070
        98        0.0000           -0.1899292              -5.1682
        99                         -0.1344991              -3.6599
       100                         -0.0736637              -2.0045
       101                         -0.0669733              -1.8224
       ...                                ...                  ...
       171                          0.5732742              15.5996
      -------------------------------------------------------------
                  HL-Gap            0.0205500 Eh            0.5592 eV

     #   Z          covCN         q      C6AA      α(0)
     1   7 N        1.774    -0.268    27.778     7.805
     2   6 C        2.827     0.102    25.741     8.314
     3   6 C        3.908     0.006    20.414     6.422
     4   6 C        2.974     0.002    27.981     8.677
     5   6 C        2.920    -0.080    30.008     8.983
     6   6 C        2.862     0.129    25.167     8.223
     7   8 O        1.706    -0.230    17.814     5.699
     8   6 C        3.644     0.028    20.446     6.499
     9   6 C        2.864     0.129    25.180     8.225
    10   8 O        1.706    -0.228    17.786     5.694
    11   6 C        3.645     0.027    20.460     6.501
    12   6 C        2.914    -0.074    29.853     8.959
    13   6 C        2.921    -0.053    29.312     8.878
    14   6 C        3.813    -0.065    21.727     6.635
    15   6 C        3.802    -0.070    21.830     6.652
    16   6 C        2.844     0.008    27.823     8.645
    17   7 N        2.729     0.014    21.003     6.807
    18   6 C        3.757    -0.017    20.926     6.522
    19   6 C        3.808    -0.069    21.806     6.647
    20   6 C        2.954     0.012    27.748     8.640
    21   6 C        2.925    -0.033    28.826     8.805
    22   6 C        2.898    -0.069    29.724     8.939
    23   6 C        2.855     0.150    24.747     8.153
    24   8 O        1.705    -0.198    17.310     5.617
    25   6 C        3.646     0.019    20.594     6.522
    26   6 C        3.756     0.122    18.645     6.157
    27   8 O        1.701    -0.293    18.877     5.866
    28   6 C        3.647     0.036    20.293     6.473
    29   6 C        1.992    -0.118    34.336     9.463
    30   6 C        3.700    -0.072    22.039     6.714
    31   6 C        3.853    -0.007    20.671     6.467
    32   6 C        3.756    -0.118    22.823     6.812
    33   6 C        3.755    -0.119    22.833     6.813
    34   1 H        0.926     0.052     2.299     2.371
    35   1 H        0.924     0.054     2.273     2.358
    36   1 H        0.925     0.081     1.967     2.193
    37   1 H        0.924     0.047     2.359     2.402
    38   1 H        0.924     0.055     2.255     2.348
    39   1 H        0.925     0.081     1.966     2.193
    40   1 H        0.924     0.049     2.335     2.390
    41   1 H        0.926     0.053     2.284     2.364
    42   1 H        0.926     0.040     2.452     2.449
    43   1 H        0.925     0.060     2.196     2.317
    44   1 H        0.924     0.054     2.276     2.359
    45   1 H        0.925     0.067     2.118     2.276
    46   1 H        0.923     0.080     1.980     2.200
    47   1 H        0.922     0.006     2.958     2.690
    48   1 H        0.926     0.069     2.092     2.262
    49   1 H        0.924     0.074     2.044     2.236
    50   1 H        0.924     0.066     2.131     2.283
    51   1 H        0.924     0.051     2.307     2.375
    52   1 H        0.925     0.062     2.173     2.305
    53   1 H        0.926     0.050     2.314     2.379
    54   1 H        0.926     0.061     2.186     2.312
    55   1 H        0.924     0.067     2.123     2.279
    56   1 H        0.924     0.063     2.160     2.298
    57   1 H        0.925     0.090     1.882     2.145
    58   1 H        0.925     0.072     2.066     2.247
    59   1 H        0.924     0.044     2.398     2.422
    60   1 H        0.924     0.045     2.390     2.418
    61   1 H        0.922     0.066     2.130     2.282
    62   1 H        0.924     0.077     2.009     2.217
    63   1 H        0.924     0.079     1.985     2.203
    64   1 H        0.925     0.084     1.937     2.176
    65   1 H        0.924     0.037     2.489     2.467
    66   1 H        0.925     0.068     2.104     2.268
    67   1 H        0.925     0.035     2.511     2.478
    68   1 H        0.925     0.051     2.305     2.374
    69   1 H        0.925     0.062     2.181     2.309
    70   1 H        0.925     0.034     2.524     2.484
    71   1 H        0.925     0.054     2.265     2.354
    72   1 H        0.860     0.157     1.353     1.822

Wiberg/Mayer (AO) data.
largest (>0.10) Wiberg bond orders for each atom

     #   Z sym  total        # sym  WBO       # sym  WBO       # sym  WBO
 ---------------------------------------------------------------------------
     1   7 N    3.039 --     2 C    1.957    72 H    0.942
     2   6 C    3.930 --     1 N    1.957     3 C    0.994    47 H    0.901
     3   6 C    3.976 --     2 C    0.994     4 C    0.970    14 C    0.956
                            31 C    0.943
     4   6 C    3.948 --    13 C    1.414     5 C    1.368     3 C    0.970
     5   6 C    3.962 --     6 C    1.401     4 C    1.368    34 H    0.958
     6   6 C    3.905 --     5 C    1.401     9 C    1.222     7 O    1.099
     7   8 O    2.254 --     6 C    1.099     8 C    0.978
     8   6 C    3.932 --     7 O    0.978    36 H    0.977    35 H    0.973
                            37 H    0.973
     9   6 C    3.901 --    12 C    1.391     6 C    1.222    10 O    1.102
    10   8 O    2.252 --     9 C    1.102    11 C    0.977
    11   6 C    3.931 --    10 O    0.977    39 H    0.977    40 H    0.973
                            38 H    0.973
    12   6 C    3.962 --    13 C    1.404     9 C    1.391    41 H    0.964
    13   6 C    3.954 --     4 C    1.414    12 C    1.404    42 H    0.962
    14   6 C    3.974 --    15 C    0.983    44 H    0.972    43 H    0.968
                             3 C    0.956
    15   6 C    3.986 --    16 C    1.059    14 C    0.983    45 H    0.960
                            46 H    0.926
    16   6 C    3.603 --    17 N    1.412    15 C    1.059    48 H    0.957
    17   7 N    3.487 --    16 C    1.412    30 C    0.998    18 C    0.986
    18   6 C    3.955 --    17 N    0.986    19 C    0.968    50 H    0.967
                            49 H    0.964
    19   6 C    3.964 --    20 C    0.993    52 H    0.973    51 H    0.972
                            18 C    0.968
    20   6 C    3.936 --    29 C    1.624    21 C    1.217    19 C    0.993
    21   6 C    3.648 --    22 C    1.394    20 C    1.217    53 H    0.961
    22   6 C    3.957 --    23 C    1.440    21 C    1.394    54 H    0.953
    23   6 C    3.668 --    22 C    1.440    24 O    1.173    26 C    0.941
    24   8 O    2.283 --    23 C    1.173    25 C    0.960
    25   6 C    3.915 --    57 H    0.976    56 H    0.972    55 H    0.971
                            24 O    0.960
    26   6 C    3.918 --    29 C    1.026    27 O    0.944    23 C    0.941
                            61 H    0.919
    27   8 O    2.040 --    28 C    0.992    26 C    0.944
    28   6 C    3.932 --    27 O    0.992    58 H    0.974    59 H    0.972
                            60 H    0.972
    29   6 C    2.832 --    20 C    1.624    26 C    1.026
    30   6 C    3.956 --    17 N    0.998    64 H    0.977    62 H    0.966
                            63 H    0.962
    31   6 C    3.972 --    33 C    1.009    32 C    1.008    65 H    0.960
                             3 C    0.943
    32   6 C    3.979 --    31 C    1.008    67 H    0.982    68 H    0.981
                            66 H    0.974
    33   6 C    3.982 --    31 C    1.009    70 H    0.983    71 H    0.980
                            69 H    0.976
    34   1 H    0.996 --     5 C    0.958
    35   1 H    0.993 --     8 C    0.973
    36   1 H    0.993 --     8 C    0.977
    37   1 H    0.994 --     8 C    0.973
    38   1 H    0.993 --    11 C    0.973
    39   1 H    0.993 --    11 C    0.977
    40   1 H    0.993 --    11 C    0.973
    41   1 H    0.995 --    12 C    0.964
    42   1 H    0.998 --    13 C    0.962
    43   1 H    0.995 --    14 C    0.968
    44   1 H    0.996 --    14 C    0.972
    45   1 H    0.995 --    15 C    0.960
    46   1 H    0.970 --    15 C    0.926
    47   1 H    0.986 --     2 C    0.901
    48   1 H    0.995 --    16 C    0.957
    49   1 H    0.991 --    18 C    0.964
    50   1 H    0.994 --    18 C    0.967
    51   1 H    0.997 --    19 C    0.972
    52   1 H    0.995 --    19 C    0.973
    53   1 H    0.986 --    21 C    0.961
    54   1 H    0.986 --    22 C    0.953
    55   1 H    0.990 --    25 C    0.971
    56   1 H    0.990 --    25 C    0.972
    57   1 H    0.991 --    25 C    0.976
    58   1 H    0.992 --    28 C    0.974
    59   1 H    0.992 --    28 C    0.972
    60   1 H    0.992 --    28 C    0.972
    61   1 H    0.966 --    26 C    0.919
    62   1 H    0.985 --    30 C    0.966
    63   1 H    0.987 --    30 C    0.962
    64   1 H    0.993 --    30 C    0.977
    65   1 H    0.992 --    31 C    0.960
    66   1 H    0.991 --    32 C    0.974
    67   1 H    0.997 --    32 C    0.982
    68   1 H    0.994 --    32 C    0.981
    69   1 H    0.993 --    33 C    0.976
    70   1 H    0.997 --    33 C    0.983
    71   1 H    0.994 --    33 C    0.980
    72   1 H    0.970 --     1 N    0.942
 ---------------------------------------------------------------------------

molecular dipole:
                 x           y           z       tot (Debye)
 q only:        1.096       0.280      -1.066
   full:        1.633       0.398      -1.263       5.345

           -------------------------------------------------
          | TOTAL ENERGY              -99.292843713354 Eh   |
          | GRADIENT NORM               0.002169427596 Eh/α |
          | HOMO-LUMO GAP               0.559192605712 eV   |
           -------------------------------------------------

 * finished run on 2024/04/06 at 11:14:06.687
