   * xtb version 6.6.1 (8d0f1dd) compiled by 'conda@1efc2f54142f' on 2023-08-01
          program call               : xtb struc.xyz --opt loose --input .xc1 --gfn2

   ID    Z sym.   atoms
    1    6 C      1, 3, 5-7, 10, 11, 14
    2    7 N      2, 4, 9, 13
    3    8 O      8, 12
    4    1 H      15-25
constraining bond 11 22 to    3.7133300 Å, actual value:    3.1884051 Å

          :  Hamiltonian                  GFN2-xTB          :
 * total energy  :   -42.7398550 Eh     change       -0.6650680E-10 Eh
 * total energy  :   -44.9102996 Eh     change       -0.2170445E+01 Eh
 * total energy  :   -48.7370186 Eh     change       -0.3826719E+01 Eh
 * total energy  :   -54.3970794 Eh     change       -0.5660061E+01 Eh
 * total energy  :   -58.1906070 Eh     change       -0.3793528E+01 Eh
 * total energy  :   -57.9414209 Eh     change        0.2491861E+00 Eh
 * total energy  :   -58.9307627 Eh     change       -0.9893419E+00 Eh
 * total energy  :   -58.1181276 Eh     change        0.8126351E+00 Eh
 * total energy  :   -59.2946967 Eh     change       -0.1176569E+01 Eh
 * total energy  :   -59.3727026 Eh     change       -0.7800593E-01 Eh
 * total energy  :   -59.7389181 Eh     change       -0.8358641E-04 Eh
 * total energy  :   -59.7389932 Eh     change       -0.7508314E-04 Eh
 * total energy  :   -59.7390695 Eh     change       -0.7633333E-04 Eh
 * total energy  :   -59.7391319 Eh     change       -0.6235811E-04 Eh
 * total energy  :   -59.7391630 Eh     change       -0.3114566E-04 Eh
 * total energy  :   -59.7391622 Eh     change        0.7924277E-06 Eh
 * total energy  :   -59.7392140 Eh     change       -0.5172748E-04 Eh
 * total energy  :   -59.7392257 Eh     change       -0.1172309E-04 Eh
 * total energy  :   -59.7392433 Eh     change       -0.1761734E-04 Eh
   *** GEOMETRY OPTIMIZATION CONVERGED AFTER 65 ITERATIONS ***

 final structure:
================
25
 xtb: 6.6.1 (8d0f1dd)
C            2.98134369660355        1.09234784447218        0.25593183002750
N            2.15407059658988       -0.06374191832862        0.03910336217335
C            2.59028787663480       -1.30435376770440       -0.10731167461360
N            1.54932960553658       -2.12593014491939       -0.28718278212025
C            0.38331202838134       -1.38670373585751       -0.22603757965369
C            0.77887139039261       -0.06806553084791        0.00350168546336
C           -0.02451473660561        1.18135260454575       -0.09563506518567
O            0.45285554785872        2.18048202059041       -0.58719185473221
N           -1.32127114015035        1.08786947743321        0.33304842805233
C           -2.26444409197902        2.12555691455436       -0.02222656454131
C           -1.74404435365255        0.02537771036202        1.24326106636498
O           -2.94644064237479        0.04248903231104        1.49556146571898
N           -0.87363292115434       -1.85611268370712       -0.27473327538272
C           -1.30956592345022       -2.86923338989316       -0.90330366714859
H            2.86589509022137        1.45017969698004        1.28064943362584
H            4.02292488181575        0.83609100713239        0.07861899736666
H            2.67105456064345        1.89419309681431       -0.41648897255637
H            3.61966708855031       -1.60774553205917       -0.08198245956905
H           -1.76210573956897        2.87169675647972       -0.63205319977181
H           -3.09481643819602        1.67892965336978       -0.56955253638722
H           -2.66428733882208        2.58535954520542        0.88160892650430
H           -1.43079357885843       -0.22430258497865        1.38326731692559
H           -0.73010493313334       -3.46968402046797       -1.60241033298454
H           -2.34575746301658       -3.12954982394036       -0.75426868133562
H            1.60259845183617       -3.12826368594888       -0.40300224833884

          :  Hamiltonian                  GFN2-xTB          :
         :: total energy             -59.739243314747 Eh    ::
         :: gradient norm              0.002400886178 Eh/a0 ::
         :: HOMO-LUMO gap              2.421546268049 eV    ::
         :: SCC energy               -42.701058746135 Eh    ::
         :: -> dispersion             -0.022413175559 Eh    ::
         :: repulsion energy           2.276488564209 Eh    ::

    * Orbital Energies and Occupations

         #    Occupation            Energy/Eh            Energy/eV
      -------------------------------------------------------------
         1        2.0000           -0.9127233             -24.8365
       ...           ...                  ...                  ...
        25        2.0000           -0.6648229             -18.0908
        26        1.9999           -0.6611826             -17.9917
        27        1.9999           -0.6547046             -17.8154
        28        1.9999           -0.6484791             -17.6460
        29        1.9998           -0.6391715             -17.3927
        30        1.9994           -0.6256238             -17.0241
        31        1.9990           -0.6170282             -16.7902
        32        1.9963           -0.5963493             -16.2275
        33        1.9958           -0.5945828             -16.1794
        34        1.9811           -0.5704896             -15.5238
        35        1.9614           -0.5590439             -15.2124
        36        1.9465           -0.5537808             -15.0691
        37        1.9203           -0.5472495             -14.8914 (HOMO)
        38        0.1607           -0.4582593             -12.4699 (LUMO)
        39        0.0334           -0.4323452             -11.7647
        40        0.0061           -0.4052743             -11.0281
        41        0.0006           -0.3683941             -10.0245
        42        0.0000           -0.3221408              -8.7659
        43                         -0.1912368              -5.2038
        44                         -0.1737895              -4.7291
        45                         -0.1365522              -3.7158
        46                         -0.0805726              -2.1925
        47                         -0.0551071              -1.4995
        48                         -0.0460903              -1.2542
       ...                                ...                  ...
        67                         10.6285959             289.2188
      -------------------------------------------------------------
                  HL-Gap            0.0889902 Eh            2.4215 eV

     #   Z          covCN         q      C6AA      α(0)
     1   6 C        3.693    -0.094    22.479     6.784
     2   7 N        2.844     0.089    19.698     6.592
     3   6 C        3.029     0.061    26.593     8.459
     4   7 N        2.802    -0.061    22.412     7.031
     5   6 C        3.018     0.122    25.296     8.250
     6   6 C        3.091    -0.017    28.317     8.722
     7   6 C        2.762     0.273    22.380     7.747
     8   8 O        0.859    -0.357    20.848     6.122
     9   7 N        2.740    -0.088    22.958     7.116
    10   6 C        3.696    -0.061    21.858     6.688
    11   6 C        2.703     0.190    23.922     8.005
    12   8 O        0.866    -0.302    19.808     5.967
    13   7 N        1.825    -0.159    25.234     7.443
    14   6 C        2.792     0.038    27.134     8.533
    15   1 H        0.924     0.111     1.688     2.032
    16   1 H        0.925     0.102     1.770     2.081
    17   1 H        0.924     0.141     1.456     1.887
    18   1 H        0.926     0.125     1.577     1.964
    19   1 H        0.925     0.105     1.740     2.063
    20   1 H        0.924     0.102     1.767     2.079
    21   1 H        0.925     0.102     1.771     2.081
    22   1 H        0.946     0.164     1.300     1.782
    23   1 H        0.925     0.069     2.097     2.265
    24   1 H        0.926     0.118     1.631     1.997
    25   1 H        0.860     0.227     0.977     1.549

Wiberg/Mayer (AO) data.
largest (>0.10) Wiberg bond orders for each atom

     #   Z sym  total        # sym  WBO       # sym  WBO       # sym  WBO
 ---------------------------------------------------------------------------
     1   6 C    3.916 --     2 N    0.987    16 H    0.974    15 H    0.955
                            17 H    0.947
     2   7 N    3.713 --     3 C    1.394     6 C    1.185     1 C    0.987
     3   6 C    3.906 --     2 N    1.394     4 N    1.320    18 H    0.950
     4   7 N    3.595 --     3 C    1.320     5 C    1.147    25 H    0.920
     5   6 C    3.917 --     6 C    1.376    13 N    1.212     4 N    1.147
     6   6 C    3.880 --     5 C    1.376     2 N    1.185     7 C    0.996
     7   6 C    3.941 --     8 O    1.690     9 N    1.170     6 C    0.996
     8   8 O    2.019 --     7 C    1.690     9 N    0.142
     9   7 N    3.530 --     7 C    1.170    11 C    1.043    10 C    0.986
                            12 O    0.150     8 O    0.142
    10   6 C    3.911 --     9 N    0.986    19 H    0.968    21 H    0.957
                            20 H    0.954
    11   6 C    3.905 --    12 O    1.822     9 N    1.043    22 H    0.956
    12   8 O    2.060 --    11 C    1.822     9 N    0.150
    13   7 N    3.159 --    14 C    1.779     5 C    1.212
    14   6 C    3.805 --    13 N    1.779    24 H    0.956    23 H    0.949
    15   1 H    0.986 --     1 C    0.955
    16   1 H    0.989 --     1 C    0.974
    17   1 H    0.979 --     1 C    0.947
    18   1 H    0.984 --     3 C    0.950
    19   1 H    0.985 --    10 C    0.968
    20   1 H    0.976 --    10 C    0.954
    21   1 H    0.977 --    10 C    0.957
    22   1 H    0.969 --    11 C    0.956
    23   1 H    0.984 --    14 C    0.949
    24   1 H    0.981 --    14 C    0.956
    25   1 H    0.948 --     4 N    0.920
 ---------------------------------------------------------------------------

molecular dipole:
                 x           y           z       tot (Debye)
 q only:        2.512      -1.965      -0.197
   full:        2.944      -2.591      -0.370      10.011

           -------------------------------------------------
          | TOTAL ENERGY              -59.739243314747 Eh   |
          | GRADIENT NORM               0.002400886178 Eh/α |
          | HOMO-LUMO GAP               2.421546268049 eV   |
           -------------------------------------------------

 * finished run on 2024/06/05 at 19:58:11.680
