   * xtb version 6.6.1 (8d0f1dd) compiled by 'conda@1efc2f54142f' on 2023-08-01
          program call               : xtb struc.xyz --opt loose --input .xc1 --gfn2

   ID    Z sym.   atoms
    1    7 N      1, 17
    2    6 C      2-6, 8, 9, 11-16, 18-23, 25, 26, 28-33
    3    8 O      7, 10, 24, 27
    4    1 H      34-72
constraining bond 16 45 to    2.7133300 Å, actual value:    2.1449850 Å

          :  Hamiltonian                  GFN2-xTB          :
 * total energy  :   -99.4618065 Eh     change       -0.4035485E-08 Eh
 * total energy  :   -99.5694065 Eh     change       -0.1076001E+00 Eh
 * total energy  :   -99.6917671 Eh     change       -0.1223606E+00 Eh
 * total energy  :   -98.5962585 Eh     change        0.1095509E+01 Eh
 * total energy  :   -99.7157869 Eh     change       -0.1119528E+01 Eh
 * total energy  :   -99.7532124 Eh     change       -0.3742555E-01 Eh
 * total energy  :   -99.7833631 Eh     change       -0.3015067E-01 Eh
 * total energy  :   -99.8081543 Eh     change       -0.2479125E-01 Eh
 * total energy  :   -99.8330909 Eh     change       -0.2493655E-01 Eh
 * total energy  :   -99.8449999 Eh     change       -0.1190902E-01 Eh
 * total energy  :   -99.9244047 Eh     change       -0.1188809E-03 Eh
 * total energy  :   -99.9244961 Eh     change       -0.9138525E-04 Eh
 * total energy  :   -99.9246072 Eh     change       -0.1111660E-03 Eh
 * total energy  :   -99.9247190 Eh     change       -0.1117762E-03 Eh
 * total energy  :   -99.9248304 Eh     change       -0.1113452E-03 Eh
 * total energy  :   -99.9249508 Eh     change       -0.1203935E-03 Eh
 * total energy  :   -99.9250707 Eh     change       -0.1199845E-03 Eh
 * total energy  :   -99.9251626 Eh     change       -0.9188837E-04 Eh
 * total energy  :   -99.9252037 Eh     change       -0.4111235E-04 Eh
   *** GEOMETRY OPTIMIZATION CONVERGED AFTER 68 ITERATIONS ***

 final structure:
================
72
 xtb: 6.6.1 (8d0f1dd)
N           -2.97120605690858        3.41876237944851        2.73361076650208
C           -2.53161349540222        2.59768415397846        1.89932533620632
C           -3.26766214405166        2.21554240661844        0.64094056335360
C           -3.50782591605325        0.71760679941114        0.62271180606761
C           -3.79720473405287        0.07886342580036       -0.58298203065622
C           -4.04568251465251       -1.28411519867900       -0.63325099049107
O           -4.33217500583937       -1.98358698845596       -1.74985823489691
C           -4.47209008648548       -1.30420823032623       -2.97566887083045
C           -4.01006661544454       -2.04839969499196        0.56613320947637
O           -4.27033846900414       -3.36108643055555        0.42216751708574
C           -4.38148660262193       -4.17083678649293        1.56995321574848
C           -3.72854283779147       -1.40160984426878        1.76041200536513
C           -3.48112939347835       -0.03648078251381        1.78629914782354
C           -2.33622356926929        2.61268664264238       -0.56389489326504
C           -1.37372125051317        1.58423331488192       -0.99519474030052
C           -0.37002963792743        0.96298752624287       -0.07726782301348
N            0.44375003464468       -0.00354272196051       -0.82605999324357
C            1.82013359002967       -0.11677162463183       -0.39811035771838
C            2.72784731876922       -0.65312357852704       -1.51853337928911
C            4.16893001868198       -0.43476470412313       -1.15960728151457
C            4.77635035698265        0.79080841675536       -1.40450955898006
C            6.09640196288436        1.01610232174681       -1.05265202517807
C            6.84435984514686        0.01780188797431       -0.44047841120411
O            8.12852984394026        0.12069791303606       -0.05856798585056
C            8.83689128602128        1.30946718033433       -0.32445764346183
C            6.23014533345222       -1.24103948136293       -0.17844389592320
O            7.02489429826328       -2.14862009740307        0.41582048733423
C            6.51815029500594       -3.42919166888665        0.71107437574905
C            4.90539790294163       -1.44064658622870       -0.54151972857347
C           -0.23204303791687       -1.26650208692022       -0.99766579484307
C           -4.63747369808816        2.93531108875073        0.48754532074760
C           -5.60475551624692        2.54781375824851        1.60475260678067
C           -4.51464070182641        4.45513212257733        0.42509393605086
H           -3.85599864065563        0.65826551846899       -1.48877124022914
H           -5.26761905410421       -0.55463548508422       -2.92984854412025
H           -4.73951195813460       -2.06793952810178       -3.70336778697400
H           -3.53521423840356       -0.82714189167262       -3.28141700635891
H           -5.14954871429002       -3.79463686266909        2.25192219419692
H           -4.67189164231757       -5.15468320706988        1.20630998288892
H           -3.42779949563002       -4.24853331139376        2.10130833934773
H           -3.70686057486534       -1.95361711303814        2.68588788597139
H           -3.28698721308667        0.43909429316580        2.73520590883930
H           -2.96370286507718        2.88837197436949       -1.41100034622661
H           -1.79960346750456        3.51911006186324       -0.25285463925357
H           -0.73464705395980        0.61088590720343        0.59966332982531
H           -1.29911736572976        1.33609033766785       -2.03970450975459
H           -1.55427984675226        2.10589696814475        1.99761874551334
H            0.31668314059651        1.77676519933064        0.23578098565560
H            1.92044732017661       -0.76644704575294        0.48786494912542
H            2.17671817526861        0.87998424334446       -0.12633527122963
H            2.48726591424301       -0.11570496413820       -2.43642722408957
H            2.54169420063057       -1.71492614115310       -1.67572211805908
H            4.21636924058252        1.57855650303388       -1.88489529499446
H            6.54031828698859        1.97587014636736       -1.26104880695254
H            8.40814983282331        2.16008739307691        0.21399474273300
H            8.86104424128477        1.52951533290614       -1.39580882675143
H            9.85004257769135        1.13129479057250        0.03096592118154
H            7.34217626574193       -3.96941983993565        1.17321995765432
H            5.68075842694941       -3.37550282418389        1.41354139777637
H            6.20348808609255       -3.95463009219744       -0.19548185995170
H            4.43426772252551       -2.39279838293090       -0.35412208020179
H            0.27850014387080       -1.85527148288246       -1.75526114222851
H           -1.25360927364571       -1.08609623308527       -1.32779784459052
H           -0.27049292773026       -1.85069868303615       -0.06598343944753
H           -5.06344596188618        2.58269909656623       -0.46005824721581
H           -5.22933568885700        2.90074492852551        2.56043756614579
H           -5.74258271820821        1.47045349467589        1.65276416712838
H           -6.57174642525866        3.00913597174922        1.42327454951152
H           -4.12965471735011        4.83626747298750        1.36587697474910
H           -3.86508809778192        4.78247960658538       -0.38212741104988
H           -5.49839383205392        4.88629871080151        0.25824809651904
H           -2.39014700835074        3.63197982725990        3.53829613244931

          :  Hamiltonian                  GFN2-xTB          :
         :: total energy             -99.925203747348 Eh    ::
         :: gradient norm              0.001966320767 Eh/a0 ::
         :: HOMO-LUMO gap              0.951344082211 eV    ::
         :: SCC energy              -100.748777608922 Eh    ::
         :: -> dispersion             -0.074921038320 Eh    ::
         :: repulsion energy           1.445076270008 Eh    ::

    * Orbital Energies and Occupations

         #    Occupation            Energy/Eh            Energy/eV
      -------------------------------------------------------------
         1        2.0000           -0.8164376             -22.2164
       ...           ...                  ...                  ...
        78        1.9971           -0.5316579             -14.4671
        79        1.9966           -0.5293499             -14.4043
        80        1.9959           -0.5264744             -14.3261
        81        1.9943           -0.5210583             -14.1787
        82        1.9938           -0.5197146             -14.1422
        83        1.9930           -0.5179061             -14.0929
        84        1.9916           -0.5150681             -14.0157
        85        1.9717           -0.4956040             -13.4861
        86        1.9629           -0.4912349             -13.3672
        87        1.8935           -0.4739689             -12.8974
        88        1.8464           -0.4677805             -12.7290
        89        1.8131           -0.4643795             -12.6364
        90        1.7287           -0.4577282             -12.4554 (HOMO)
        91        0.8239           -0.4227670             -11.5041 (LUMO)
        92        0.0086           -0.3422484              -9.3131
        93        0.0022           -0.3207892              -8.7291
        94        0.0019           -0.3184681              -8.6660
        95        0.0015           -0.3146102              -8.5610
        96        0.0014           -0.3131211              -8.5205
        97        0.0000           -0.1961266              -5.3369
        98        0.0000           -0.1905780              -5.1859
        99                         -0.1136146              -3.0916
       100                         -0.0711910              -1.9372
       101                         -0.0645225              -1.7557
       ...                                ...                  ...
       171                          0.7917437              21.5444
      -------------------------------------------------------------
                  HL-Gap            0.0349613 Eh            0.9513 eV

     #   Z          covCN         q      C6AA      α(0)
     1   7 N        1.774    -0.263    27.655     7.787
     2   6 C        2.824     0.101    25.764     8.317
     3   6 C        3.906     0.010    20.346     6.411
     4   6 C        2.975     0.005    27.905     8.665
     5   6 C        2.919    -0.078    29.948     8.974
     6   6 C        2.862     0.131    25.131     8.217
     7   8 O        1.706    -0.226    17.753     5.689
     8   6 C        3.644     0.026    20.470     6.503
     9   6 C        2.864     0.132    25.109     8.214
    10   8 O        1.706    -0.222    17.688     5.678
    11   6 C        3.645     0.025    20.490     6.506
    12   6 C        2.913    -0.069    29.714     8.939
    13   6 C        2.921    -0.047    29.168     8.857
    14   6 C        3.807    -0.062    21.683     6.629
    15   6 C        2.887    -0.049    29.227     8.863
    16   6 C        3.756    -0.014    20.886     6.516
    17   7 N        2.728    -0.136    23.941     7.267
    18   6 C        3.751     0.005    20.550     6.465
    19   6 C        3.808    -0.072    21.878     6.658
    20   6 C        2.968     0.011    27.773     8.644
    21   6 C        2.922    -0.044    29.095     8.845
    22   6 C        2.912    -0.065    29.619     8.924
    23   6 C        2.864     0.136    25.036     8.202
    24   8 O        1.706    -0.214    17.550     5.656
    25   6 C        3.645     0.023    20.522     6.511
    26   6 C        2.862     0.136    25.024     8.200
    27   8 O        1.706    -0.216    17.589     5.662
    28   6 C        3.644     0.025    20.499     6.508
    29   6 C        2.919    -0.075    29.878     8.964
    30   6 C        3.705    -0.045    21.524     6.632
    31   6 C        3.853    -0.007    20.660     6.465
    32   6 C        3.756    -0.118    22.813     6.810
    33   6 C        3.755    -0.122    22.891     6.822
    34   1 H        0.926     0.057     2.238     2.340
    35   1 H        0.924     0.056     2.241     2.341
    36   1 H        0.925     0.083     1.943     2.180
    37   1 H        0.924     0.048     2.340     2.392
    38   1 H        0.924     0.058     2.223     2.331
    39   1 H        0.925     0.083     1.945     2.181
    40   1 H        0.924     0.053     2.280     2.361
    41   1 H        0.926     0.059     2.216     2.328
    42   1 H        0.926     0.048     2.348     2.396
    43   1 H        0.925     0.069     2.093     2.262
    44   1 H        0.923     0.077     2.008     2.216
    45   1 H        0.930     0.097     1.816     2.107
    46   1 H        0.926     0.066     2.132     2.283
    47   1 H        0.923     0.014     2.834     2.633
    48   1 H        0.922     0.068     2.109     2.271
    49   1 H        0.923     0.031     2.571     2.508
    50   1 H        0.924     0.047     2.354     2.399
    51   1 H        0.924     0.066     2.136     2.285
    52   1 H        0.925     0.054     2.268     2.355
    53   1 H        0.926     0.054     2.268     2.355
    54   1 H        0.926     0.061     2.183     2.310
    55   1 H        0.924     0.058     2.220     2.330
    56   1 H        0.924     0.060     2.204     2.322
    57   1 H        0.925     0.085     1.926     2.171
    58   1 H        0.925     0.085     1.933     2.174
    59   1 H        0.924     0.054     2.267     2.354
    60   1 H        0.924     0.058     2.228     2.334
    61   1 H        0.926     0.055     2.258     2.350
    62   1 H        0.925     0.063     2.163     2.300
    63   1 H        0.925     0.052     2.295     2.369
    64   1 H        0.923     0.031     2.569     2.506
    65   1 H        0.924     0.040     2.453     2.450
    66   1 H        0.925     0.069     2.098     2.265
    67   1 H        0.925     0.037     2.490     2.468
    68   1 H        0.925     0.055     2.257     2.349
    69   1 H        0.925     0.071     2.078     2.254
    70   1 H        0.925     0.038     2.471     2.458
    71   1 H        0.925     0.056     2.243     2.342
    72   1 H        0.860     0.163     1.318     1.798

Wiberg/Mayer (AO) data.
largest (>0.10) Wiberg bond orders for each atom

     #   Z sym  total        # sym  WBO       # sym  WBO       # sym  WBO
 ---------------------------------------------------------------------------
     1   7 N    3.010 --     2 C    1.956    72 H    0.939
     2   6 C    3.942 --     1 N    1.956     3 C    0.992    47 H    0.930
     3   6 C    3.933 --     2 C    0.992     4 C    0.976    31 C    0.946
                            14 C    0.908
     4   6 C    3.933 --    13 C    1.406     5 C    1.370     3 C    0.976
     5   6 C    3.956 --     6 C    1.391     4 C    1.370    34 H    0.957
     6   6 C    3.888 --     5 C    1.391     9 C    1.215     7 O    1.103
     7   8 O    2.248 --     6 C    1.103     8 C    0.977
     8   6 C    3.929 --     7 O    0.977    36 H    0.976    37 H    0.973
                            35 H    0.972
     9   6 C    3.888 --    12 C    1.383     6 C    1.215    10 O    1.109
    10   8 O    2.249 --     9 C    1.109    11 C    0.975
    11   6 C    3.927 --    39 H    0.976    10 O    0.975    38 H    0.972
                            40 H    0.972
    12   6 C    3.951 --    13 C    1.411     9 C    1.383    41 H    0.963
    13   6 C    3.943 --    12 C    1.411     4 C    1.406    42 H    0.963
    14   6 C    3.978 --    15 C    1.095    43 H    0.964    44 H    0.920
                             3 C    0.908
    15   6 C    3.205 --    14 C    1.095    16 C    1.053    46 H    0.969
    16   6 C    3.962 --    15 C    1.053    17 N    0.986    45 H    0.947
                            48 H    0.919
    17   7 N    3.079 --    30 C    1.017    18 C    1.007    16 C    0.986
    18   6 C    3.965 --    17 N    1.007    19 C    0.975    50 H    0.968
                            49 H    0.957
    19   6 C    3.981 --    20 C    1.014    18 C    0.975    52 H    0.970
                            51 H    0.967
    20   6 C    3.922 --    29 C    1.389    21 C    1.385    19 C    1.014
    21   6 C    3.924 --    22 C    1.429    20 C    1.385    53 H    0.967
    22   6 C    3.948 --    21 C    1.429    23 C    1.370    54 H    0.962
    23   6 C    3.868 --    22 C    1.370    26 C    1.208    24 O    1.118
    24   8 O    2.246 --    23 C    1.118    25 C    0.975
    25   6 C    3.924 --    57 H    0.976    24 O    0.975    56 H    0.971
                            55 H    0.971
    26   6 C    3.875 --    29 C    1.383    23 C    1.208    27 O    1.115
    27   8 O    2.249 --    26 C    1.115    28 C    0.976
    28   6 C    3.926 --    58 H    0.976    27 O    0.976    59 H    0.972
                            60 H    0.971
    29   6 C    3.949 --    20 C    1.389    26 C    1.383    61 H    0.961
    30   6 C    3.968 --    17 N    1.017    63 H    0.977    62 H    0.975
                            64 H    0.965
    31   6 C    3.968 --    33 C    1.008    32 C    1.004    65 H    0.958
                             3 C    0.946
    32   6 C    3.971 --    31 C    1.004    67 H    0.981    68 H    0.980
                            66 H    0.972
    33   6 C    3.972 --    31 C    1.008    70 H    0.980    71 H    0.979
                            69 H    0.971
    34   1 H    0.995 --     5 C    0.957
    35   1 H    0.992 --     8 C    0.972
    36   1 H    0.992 --     8 C    0.976
    37   1 H    0.992 --     8 C    0.973
    38   1 H    0.991 --    11 C    0.972
    39   1 H    0.992 --    11 C    0.976
    40   1 H    0.991 --    11 C    0.972
    41   1 H    0.994 --    12 C    0.963
    42   1 H    0.997 --    13 C    0.963
    43   1 H    0.993 --    14 C    0.964
    44   1 H    0.947 --    14 C    0.920
    45   1 H    0.967 --    16 C    0.947
    46   1 H    0.994 --    15 C    0.969
    47   1 H    0.978 --     2 C    0.930
    48   1 H    0.951 --    16 C    0.919
    49   1 H    0.980 --    18 C    0.957
    50   1 H    0.997 --    18 C    0.968
    51   1 H    0.992 --    19 C    0.967
    52   1 H    0.995 --    19 C    0.970
    53   1 H    0.996 --    21 C    0.967
    54   1 H    0.994 --    22 C    0.962
    55   1 H    0.988 --    25 C    0.971
    56   1 H    0.989 --    25 C    0.971
    57   1 H    0.992 --    25 C    0.976
    58   1 H    0.992 --    28 C    0.976
    59   1 H    0.990 --    28 C    0.972
    60   1 H    0.990 --    28 C    0.971
    61   1 H    0.995 --    29 C    0.961
    62   1 H    0.992 --    30 C    0.975
    63   1 H    0.996 --    30 C    0.977
    64   1 H    0.979 --    30 C    0.965
    65   1 H    0.989 --    31 C    0.958
    66   1 H    0.989 --    32 C    0.972
    67   1 H    0.996 --    32 C    0.981
    68   1 H    0.992 --    32 C    0.980
    69   1 H    0.989 --    33 C    0.971
    70   1 H    0.995 --    33 C    0.980
    71   1 H    0.992 --    33 C    0.979
    72   1 H    0.966 --     1 N    0.939
 ---------------------------------------------------------------------------

molecular dipole:
                 x           y           z       tot (Debye)
 q only:        0.631       0.265      -0.197
   full:        0.920       0.121       0.085       2.368

           -------------------------------------------------
          | TOTAL ENERGY              -99.925203747348 Eh   |
          | GRADIENT NORM               0.001966320767 Eh/α |
          | HOMO-LUMO GAP               0.951344082211 eV   |
           -------------------------------------------------

 * finished run on 2024/04/06 at 11:16:39.193
