   * xtb version 6.6.1 (8d0f1dd) compiled by 'conda@1efc2f54142f' on 2023-08-01
          program call               : xtb xtbopt.xyz --opt crude --input .xc2 --gfn2

   ID    Z sym.   atoms
    1    7 N      1, 17
    2    6 C      2-6, 8, 9, 11-16, 18-23, 25, 26, 28-33
    3    8 O      7, 10, 24, 27
    4    1 H      34-72
########################################################################
[WARNING] Please study the warnings concerning your input carefully
-1- readin_getIntValue: could not parse ''
########################################################################

          :  Hamiltonian                  GFN2-xTB          :
 * total energy  :   -99.3023825 Eh     change       -0.1520561E-11 Eh
 * total energy  :   -99.3636024 Eh     change       -0.6121985E-01 Eh
 * total energy  :   -99.3652263 Eh     change       -0.1623957E-02 Eh
 * total energy  :   -99.3660980 Eh     change       -0.8716421E-03 Eh
 * total energy  :   -99.3661613 Eh     change       -0.6328962E-04 Eh
   *** GEOMETRY OPTIMIZATION CONVERGED AFTER 5 ITERATIONS ***

 final structure:
================
72
 xtb: 6.6.1 (8d0f1dd)
N           -2.98095011813324        3.42693335099667        2.73448170146004
C           -2.53891576663417        2.60409057439537        1.90361830491097
C           -3.26809730915245        2.21791732313455        0.64275690974744
C           -3.50625368841299        0.72037114485473        0.62535157722757
C           -3.79593954802659        0.08167357563820       -0.58035279757587
C           -4.04399834047103       -1.28139835514972       -0.63128441970493
O           -4.32884131439191       -1.98029958198564       -1.74841152847098
C           -4.46764811047933       -1.30120934535778       -2.97429061967979
C           -4.00888513269339       -2.04597139309741        0.56797936892165
O           -4.26964487718061       -3.35847930235913        0.42426942000070
C           -4.37174030846869       -4.16961800598184        1.57241118952561
C           -3.72713521860107       -1.39954706031712        1.76234974380248
C           -3.47881492203547       -0.03443397551259        1.78861570453119
C           -2.33037490686582        2.61633299164343       -0.55775039172113
C           -1.37534172472956        1.58443711581055       -0.99822461385795
C           -0.34486574339022        0.98225744904563       -0.12341616311830
N            0.45078624786063        0.00767579505408       -0.83727214843337
C            1.82413096773538       -0.11801589416555       -0.40126526778359
C            2.73193921441575       -0.65674349735558       -1.52091184397306
C            4.17288572390553       -0.43812046794425       -1.16271829718614
C            4.78101397832533        0.78635509864146       -1.41121046072829
C            6.10112015109455        1.01159727581714       -1.05970572812659
C            6.84854412145137        0.01417167795649       -0.44537968845078
O            8.13353230825687        0.11667711703966       -0.06662980800580
C            8.83821398548854        1.30946279386606       -0.32509622366145
C            6.23345809491540       -1.24322895913748       -0.17914332440070
O            7.02616609829310       -2.15074283500310        0.41806378203615
C            6.51797247707277       -3.43158251777809        0.70865921354285
C            4.90830494644649       -1.44241825449246       -0.54115161601523
C           -0.23324404220516       -1.25166368641151       -1.01108621559761
C           -4.63870631196207        2.93459074118636        0.48102800699540
C           -5.61028150411990        2.54455776576856        1.59321522209525
C           -4.51799277581550        4.45457523853293        0.41875949127278
H           -3.85494553470406        0.66181124204322       -1.48562438968712
H           -5.26315673091876       -0.55157509928945       -2.92979411952474
H           -4.73429450174955       -2.06531302682830       -3.70186105611903
H           -3.53056646861348       -0.82410171395292       -3.27929588416341
H           -5.14212929854149       -3.80013232143390        2.25532750542925
H           -4.65398438019944       -5.15579462125752        1.20889195163093
H           -3.41648417105517       -4.23852043029305        2.10192937854143
H           -3.70587954005798       -1.95155512385910        2.68777293008529
H           -3.28435985168322        0.44027327146398        2.73799295175794
H           -2.95659410389125        2.90147557891814       -1.40255464145113
H           -1.78812839641470        3.51629532672356       -0.23900133793647
H           -0.82141801409975        0.52135262309099        0.76530775710360
H           -1.32888249963469        1.32612366338884       -2.04267150069813
H           -1.56141728273824        2.11209784184303        2.00429064739847
H            0.31877671775252        1.77502046413257        0.25199398904344
H            1.91280555478596       -0.77102934384577        0.48236314294967
H            2.18788509454620        0.87443259504626       -0.12433354234358
H            2.49135627254236       -0.11931977314568       -2.43903010926533
H            2.54535347676619       -1.71852352225025       -1.67844568763680
H            4.22188498860987        1.57319271711156       -1.89403506800754
H            6.54563681769267        1.97045682223295       -1.27098019979935
H            8.40141150588365        2.15676890424394        0.21216187347512
H            8.86867766105846        1.53174945614386       -1.39576269418980
H            9.84966783464038        1.13546676981019        0.03702425995807
H            7.34003200604563       -3.97361963069519        1.17214210688467
H            5.67812147013329       -3.37970693563614        1.40845315996197
H            6.20585217155763       -3.95443059032577       -0.20040887149956
H            4.43564646272315       -2.39289825682240       -0.34969607996938
H            0.27193278637051       -1.84494208061229       -1.76926751072976
H           -1.25448615094137       -1.06539943156390       -1.33541554642066
H           -0.27040461850200       -1.83131735046528       -0.07692301466020
H           -5.05884780955898        2.58095881216474       -0.46865832841549
H           -5.23809583097791        2.89307828492544        2.55172984273281
H           -5.75002766769876        1.46715704913252        1.63655287666488
H           -6.57607111473073        3.00784152402809        1.41002585023108
H           -4.12643325507255        4.83536013632613        1.35700764305119
H           -3.87458197811402        4.78271607908001       -0.39311785061919
H           -5.50330959861488        4.88507057297477        0.25958156887983
H           -2.40442307706770        3.64341514258047        3.54133436036916

          :  Hamiltonian                  GFN2-xTB          :
         :: total energy             -99.366161260722 Eh    ::
         :: gradient norm              0.001043544279 Eh/a0 ::
         :: HOMO-LUMO gap              0.953127241944 eV    ::
         :: SCC energy              -100.729749812835 Eh    ::
         :: -> dispersion             -0.075004153316 Eh    ::
         :: repulsion energy           1.362263726504 Eh    ::

    * Orbital Energies and Occupations

         #    Occupation            Energy/Eh            Energy/eV
      -------------------------------------------------------------
         1        2.0000           -0.8165473             -22.2194
       ...           ...                  ...                  ...
        78        1.9971           -0.5317247             -14.4690
        79        1.9966           -0.5293918             -14.4055
        80        1.9960           -0.5266404             -14.3306
        81        1.9943           -0.5211098             -14.1801
        82        1.9938           -0.5197483             -14.1431
        83        1.9930           -0.5179705             -14.0947
        84        1.9916           -0.5151048             -14.0167
        85        1.9715           -0.4955192             -13.4838
        86        1.9629           -0.4912838             -13.3685
        87        1.8949           -0.4742280             -12.9044
        88        1.8514           -0.4683795             -12.7453
        89        1.8091           -0.4640436             -12.6273
        90        1.7287           -0.4577601             -12.4563 (HOMO)
        91        0.8219           -0.4227333             -11.5032 (LUMO)
        92        0.0085           -0.3420079              -9.3065
        93        0.0022           -0.3206232              -8.7246
        94        0.0019           -0.3184449              -8.6653
        95        0.0015           -0.3146195              -8.5612
        96        0.0014           -0.3131303              -8.5207
        97        0.0000           -0.1960873              -5.3358
        98        0.0000           -0.1904821              -5.1833
        99                         -0.1034487              -2.8150
       100                         -0.0712561              -1.9390
       101                         -0.0644049              -1.7525
       ...                                ...                  ...
       171                          0.5699834              15.5100
      -------------------------------------------------------------
                  HL-Gap            0.0350268 Eh            0.9531 eV

     #   Z          covCN         q      C6AA      α(0)
     1   7 N        1.774    -0.263    27.641     7.785
     2   6 C        2.824     0.101    25.757     8.316
     3   6 C        3.906     0.011    20.339     6.410
     4   6 C        2.975     0.006    27.886     8.662
     5   6 C        2.919    -0.078    29.950     8.974
     6   6 C        2.862     0.131    25.126     8.216
     7   8 O        1.706    -0.226    17.748     5.688
     8   6 C        3.644     0.026    20.470     6.503
     9   6 C        2.864     0.132    25.107     8.213
    10   8 O        1.706    -0.222    17.686     5.678
    11   6 C        3.645     0.025    20.493     6.506
    12   6 C        2.913    -0.069    29.716     8.939
    13   6 C        2.921    -0.046    29.148     8.854
    14   6 C        3.807    -0.062    21.681     6.629
    15   6 C        2.888    -0.046    29.133     8.849
    16   6 C        3.755     0.005    20.541     6.462
    17   7 N        2.729    -0.125    23.714     7.233
    18   6 C        3.753     0.004    20.571     6.468
    19   6 C        3.808    -0.072    21.878     6.658
    20   6 C        2.968     0.011    27.771     8.644
    21   6 C        2.922    -0.044    29.094     8.845
    22   6 C        2.912    -0.065    29.620     8.924
    23   6 C        2.864     0.136    25.035     8.202
    24   8 O        1.706    -0.214    17.549     5.656
    25   6 C        3.645     0.023    20.523     6.511
    26   6 C        2.862     0.136    25.024     8.200
    27   8 O        1.706    -0.216    17.587     5.662
    28   6 C        3.645     0.025    20.498     6.507
    29   6 C        2.919    -0.075    29.880     8.964
    30   6 C        3.707    -0.046    21.540     6.634
    31   6 C        3.853    -0.007    20.660     6.465
    32   6 C        3.756    -0.118    22.812     6.810
    33   6 C        3.755    -0.122    22.893     6.822
    34   1 H        0.926     0.057     2.240     2.340
    35   1 H        0.924     0.057     2.241     2.341
    36   1 H        0.925     0.084     1.942     2.179
    37   1 H        0.924     0.048     2.342     2.393
    38   1 H        0.924     0.058     2.220     2.330
    39   1 H        0.925     0.083     1.944     2.180
    40   1 H        0.924     0.053     2.279     2.361
    41   1 H        0.926     0.059     2.214     2.327
    42   1 H        0.926     0.048     2.348     2.396
    43   1 H        0.925     0.069     2.093     2.262
    44   1 H        0.923     0.076     2.017     2.221
    45   1 H        0.922     0.054     2.274     2.358
    46   1 H        0.926     0.065     2.136     2.285
    47   1 H        0.923     0.015     2.815     2.624
    48   1 H        0.923     0.070     2.088     2.260
    49   1 H        0.923     0.032     2.557     2.501
    50   1 H        0.924     0.048     2.348     2.396
    51   1 H        0.924     0.065     2.137     2.286
    52   1 H        0.925     0.054     2.267     2.354
    53   1 H        0.926     0.054     2.268     2.355
    54   1 H        0.926     0.061     2.183     2.310
    55   1 H        0.924     0.058     2.221     2.330
    56   1 H        0.924     0.060     2.203     2.321
    57   1 H        0.925     0.085     1.926     2.170
    58   1 H        0.925     0.085     1.933     2.174
    59   1 H        0.924     0.054     2.267     2.355
    60   1 H        0.924     0.057     2.229     2.335
    61   1 H        0.926     0.055     2.257     2.350
    62   1 H        0.925     0.064     2.157     2.297
    63   1 H        0.925     0.053     2.284     2.363
    64   1 H        0.923     0.032     2.555     2.500
    65   1 H        0.924     0.040     2.452     2.449
    66   1 H        0.925     0.069     2.099     2.266
    67   1 H        0.925     0.037     2.491     2.468
    68   1 H        0.925     0.055     2.255     2.348
    69   1 H        0.925     0.071     2.077     2.254
    70   1 H        0.925     0.038     2.471     2.458
    71   1 H        0.925     0.057     2.240     2.340
    72   1 H        0.860     0.163     1.315     1.796

Wiberg/Mayer (AO) data.
largest (>0.10) Wiberg bond orders for each atom

     #   Z sym  total        # sym  WBO       # sym  WBO       # sym  WBO
 ---------------------------------------------------------------------------
     1   7 N    3.010 --     2 C    1.956    72 H    0.939
     2   6 C    3.941 --     1 N    1.956     3 C    0.992    47 H    0.927
     3   6 C    3.931 --     2 C    0.992     4 C    0.977    31 C    0.945
                            14 C    0.906
     4   6 C    3.933 --    13 C    1.405     5 C    1.369     3 C    0.977
     5   6 C    3.956 --     6 C    1.391     4 C    1.369    34 H    0.957
     6   6 C    3.887 --     5 C    1.391     9 C    1.215     7 O    1.104
     7   8 O    2.249 --     6 C    1.104     8 C    0.977
     8   6 C    3.929 --     7 O    0.977    36 H    0.976    37 H    0.973
                            35 H    0.972
     9   6 C    3.887 --    12 C    1.384     6 C    1.215    10 O    1.110
    10   8 O    2.249 --     9 C    1.110    11 C    0.975
    11   6 C    3.927 --    39 H    0.976    10 O    0.975    38 H    0.972
                            40 H    0.972
    12   6 C    3.951 --    13 C    1.410     9 C    1.384    41 H    0.963
    13   6 C    3.942 --    12 C    1.410     4 C    1.405    42 H    0.963
    14   6 C    3.979 --    15 C    1.094    43 H    0.965    44 H    0.922
                             3 C    0.906
    15   6 C    3.219 --    14 C    1.094    16 C    1.069    46 H    0.968
    16   6 C    3.968 --    15 C    1.069    17 N    1.004    48 H    0.923
                            45 H    0.913
    17   7 N    3.099 --    30 C    1.015    18 C    1.006    16 C    1.004
    18   6 C    3.965 --    17 N    1.006    19 C    0.975    50 H    0.969
                            49 H    0.957
    19   6 C    3.981 --    20 C    1.014    18 C    0.975    52 H    0.970
                            51 H    0.967
    20   6 C    3.922 --    29 C    1.390    21 C    1.385    19 C    1.014
    21   6 C    3.924 --    22 C    1.429    20 C    1.385    53 H    0.967
    22   6 C    3.948 --    21 C    1.429    23 C    1.370    54 H    0.962
    23   6 C    3.868 --    22 C    1.370    26 C    1.208    24 O    1.119
    24   8 O    2.246 --    23 C    1.119    25 C    0.975
    25   6 C    3.924 --    57 H    0.976    24 O    0.975    56 H    0.971
                            55 H    0.971
    26   6 C    3.875 --    29 C    1.383    23 C    1.208    27 O    1.114
    27   8 O    2.249 --    26 C    1.114    28 C    0.976
    28   6 C    3.926 --    58 H    0.976    27 O    0.976    59 H    0.972
                            60 H    0.971
    29   6 C    3.949 --    20 C    1.390    26 C    1.383    61 H    0.961
    30   6 C    3.968 --    17 N    1.015    63 H    0.977    62 H    0.976
                            64 H    0.965
    31   6 C    3.968 --    33 C    1.008    32 C    1.004    65 H    0.958
                             3 C    0.945
    32   6 C    3.971 --    31 C    1.004    67 H    0.981    68 H    0.980
                            66 H    0.972
    33   6 C    3.972 --    31 C    1.008    70 H    0.980    71 H    0.978
                            69 H    0.970
    34   1 H    0.995 --     5 C    0.957
    35   1 H    0.992 --     8 C    0.972
    36   1 H    0.992 --     8 C    0.976
    37   1 H    0.992 --     8 C    0.973
    38   1 H    0.991 --    11 C    0.972
    39   1 H    0.992 --    11 C    0.976
    40   1 H    0.991 --    11 C    0.972
    41   1 H    0.994 --    12 C    0.963
    42   1 H    0.997 --    13 C    0.963
    43   1 H    0.993 --    14 C    0.965
    44   1 H    0.949 --    14 C    0.922
    45   1 H    0.950 --    16 C    0.913
    46   1 H    0.994 --    15 C    0.968
    47   1 H    0.977 --     2 C    0.927
    48   1 H    0.954 --    16 C    0.923
    49   1 H    0.980 --    18 C    0.957
    50   1 H    0.997 --    18 C    0.969
    51   1 H    0.992 --    19 C    0.967
    52   1 H    0.995 --    19 C    0.970
    53   1 H    0.996 --    21 C    0.967
    54   1 H    0.994 --    22 C    0.962
    55   1 H    0.988 --    25 C    0.971
    56   1 H    0.989 --    25 C    0.971
    57   1 H    0.992 --    25 C    0.976
    58   1 H    0.992 --    28 C    0.976
    59   1 H    0.990 --    28 C    0.972
    60   1 H    0.990 --    28 C    0.971
    61   1 H    0.995 --    29 C    0.961
    62   1 H    0.992 --    30 C    0.976
    63   1 H    0.996 --    30 C    0.977
    64   1 H    0.980 --    30 C    0.965
    65   1 H    0.989 --    31 C    0.958
    66   1 H    0.989 --    32 C    0.972
    67   1 H    0.996 --    32 C    0.981
    68   1 H    0.992 --    32 C    0.980
    69   1 H    0.989 --    33 C    0.970
    70   1 H    0.995 --    33 C    0.980
    71   1 H    0.992 --    33 C    0.978
    72   1 H    0.966 --     1 N    0.939
 ---------------------------------------------------------------------------

molecular dipole:
                 x           y           z       tot (Debye)
 q only:        0.639       0.261      -0.233
   full:        0.923       0.127       0.064       2.373

           -------------------------------------------------
          | TOTAL ENERGY              -99.366161260722 Eh   |
          | GRADIENT NORM               0.001043544279 Eh/α |
          | HOMO-LUMO GAP               0.953127241944 eV   |
           -------------------------------------------------

 * finished run on 2024/04/06 at 11:16:40.316
