   * xtb version 6.6.1 (8d0f1dd) compiled by 'conda@1efc2f54142f' on 2023-08-01
          program call               : xtb struc.xyz --opt loose --input .xc1 --gfn2

   ID    Z sym.   atoms
    1    6 C      1, 3, 5-7, 10, 11, 14
    2    7 N      2, 4, 9, 13
    3    8 O      8, 12
    4    1 H      15-25
constraining bond 15 16 to    3.2800000 Å, actual value:    1.7725958 Å

          :  Hamiltonian                  GFN2-xTB          :
 * total energy  :   -38.1906522 Eh     change       -0.6650680E-10 Eh
 * total energy  :   -40.2857365 Eh     change       -0.2095084E+01 Eh
 * total energy  :   -41.6333378 Eh     change       -0.1347601E+01 Eh
 * total energy  :   -42.0352867 Eh     change       -0.4019489E+00 Eh
 * total energy  :   -42.0647487 Eh     change       -0.2946201E-01 Eh
 * total energy  :   -42.0651782 Eh     change       -0.4294824E-03 Eh
 * total energy  :   -42.0662231 Eh     change       -0.1044877E-02 Eh
 * total energy  :   -42.0667946 Eh     change       -0.5714706E-03 Eh
 * total energy  :   -42.0672728 Eh     change       -0.4781985E-03 Eh
 * total energy  :   -42.0677862 Eh     change       -0.5134339E-03 Eh
 * total energy  :   -42.1101668 Eh     change       -0.7440252E-04 Eh
 * total energy  :   -42.1102296 Eh     change       -0.6278007E-04 Eh
 * total energy  :   -42.1103142 Eh     change       -0.8464478E-04 Eh
 * total energy  :   -42.1103855 Eh     change       -0.7123793E-04 Eh
 * total energy  :   -42.1104819 Eh     change       -0.9639670E-04 Eh
 * total energy  :   -42.1105264 Eh     change       -0.4455368E-04 Eh
 * total energy  :   -42.1105145 Eh     change        0.1192941E-04 Eh
 * total energy  :   -42.1105926 Eh     change       -0.7809427E-04 Eh
 * total energy  :   -42.1106262 Eh     change       -0.3362515E-04 Eh
   *** GEOMETRY OPTIMIZATION CONVERGED AFTER 43 ITERATIONS ***

 final structure:
================
25
 xtb: 6.6.1 (8d0f1dd)
C            3.20793678556325        1.02494031910745       -0.29362654919509
N            2.32154549747310        0.02665460574626       -0.24245786685556
C            2.56764307020941       -1.30057201772819       -0.27057258111956
N            1.39956522568881       -1.99006822258786       -0.17643199014465
C            0.38214643362152       -1.09226454554894       -0.08345024667259
C            0.94379474689736        0.17302872853910       -0.12220868615961
C            0.13766603551006        1.37168942672064       -0.07965907840892
O            0.55100679124012        2.50553000123315       -0.11991047943453
N           -1.22094782447115        1.06178995791060        0.00935211692795
C           -2.16028658956098        2.17381054303455        0.04178988417409
C           -1.80522210011928       -0.19049585917278        0.06140001045623
O           -2.99130306781840       -0.34350126642168        0.14041350500389
N           -0.93892305387150       -1.30642850953183        0.01685123148889
C           -1.50870856283541       -2.63761961772683        0.07738451017341
H            2.53100110567742        1.82718677323855        2.04909536952042
H            4.23160048409900        0.78238711903916       -0.54959520942650
H            2.83931836699129        2.03366542777566       -0.32807311410010
H            3.53493150066227       -1.75008714105024       -0.35638025058461
H           -1.59013905309895        3.09965030046786        0.02411788907510
H           -2.82414521654291        2.12243699323362       -0.82159442392754
H           -2.76835451786731        2.11819167702382        0.94452081998632
H           -1.11512211071981       -3.18212418052267        0.93606340162100
H           -1.30271402812008       -3.18607667286616       -0.84213263338251
H           -2.58697040486178       -2.52657275564328        0.18925004507456
H            1.32511200035404       -2.99691254266999       -0.17297405619015

          :  Hamiltonian                  GFN2-xTB          :
         :: total energy             -42.110626194440 Eh    ::
         :: gradient norm              0.002847134318 Eh/a0 ::
         :: HOMO-LUMO gap              0.730233577390 eV    ::
         :: SCC energy               -42.632448435803 Eh    ::
         :: -> dispersion             -0.023384533048 Eh    ::
         :: repulsion energy           0.521642141323 Eh    ::

    * Orbital Energies and Occupations

         #    Occupation            Energy/Eh            Energy/eV
      -------------------------------------------------------------
         1        2.0000           -0.9152846             -24.9062
       ...           ...                  ...                  ...
        25        1.9999           -0.6712911             -18.2668
        26        1.9999           -0.6709604             -18.2578
        27        1.9999           -0.6618306             -18.0093
        28        1.9995           -0.6391842             -17.3931
        29        1.9993           -0.6354817             -17.2923
        30        1.9991           -0.6296185             -17.1328
        31        1.9985           -0.6227492             -16.9459
        32        1.9950           -0.6030512             -16.4099
        33        1.9842           -0.5848417             -15.9144
        34        1.9547           -0.5679697             -15.4552
        35        1.9480           -0.5657213             -15.3941
        36        1.9426           -0.5641302             -15.3508
        37        1.4820           -0.5250078             -14.2862 (HOMO)
        38        0.6888           -0.4981722             -13.5560 (LUMO)
        39        0.0054           -0.4146450             -11.2831
        40        0.0031           -0.4057269             -11.0404
        41        0.0004           -0.3721135             -10.1257
        42        0.0000           -0.2903477              -7.9008
        43                         -0.2101015              -5.7172
        44                         -0.1893241              -5.1518
        45                         -0.1469142              -3.9977
        46                         -0.1189353              -3.2364
        47                         -0.0854094              -2.3241
        48                         -0.0523810              -1.4254
       ...                                ...                  ...
        67                          0.5518365              15.0162
      -------------------------------------------------------------
                  HL-Gap            0.0268356 Eh            0.7302 eV

     #   Z          covCN         q      C6AA      α(0)
     1   6 C        2.788    -0.064    29.568     8.907
     2   7 N        2.811     0.127    19.071     6.486
     3   6 C        3.042     0.030    27.288     8.568
     4   7 N        2.783    -0.057    22.339     7.020
     5   6 C        3.024     0.120    25.343     8.258
     6   6 C        3.114    -0.037    28.747     8.783
     7   6 C        2.764     0.275    22.357     7.743
     8   8 O        0.858    -0.353    20.769     6.110
     9   7 N        2.746    -0.080    22.789     7.090
    10   6 C        3.710    -0.063    21.851     6.681
    11   6 C        2.728     0.318    21.593     7.607
    12   8 O        0.860    -0.347    20.646     6.092
    13   7 N        2.738    -0.052    22.241     7.004
    14   6 C        3.696    -0.074    22.087     6.723
    15   1 H        0.000     0.013     7.067     4.861
    16   1 H        0.925     0.112     1.679     2.026
    17   1 H        0.926     0.146     1.420     1.863
    18   1 H        0.927     0.124     1.578     1.964
    19   1 H        0.925     0.117     1.635     2.000
    20   1 H        0.924     0.104     1.749     2.068
    21   1 H        0.925     0.105     1.736     2.060
    22   1 H        0.924     0.086     1.917     2.165
    23   1 H        0.924     0.087     1.908     2.160
    24   1 H        0.925     0.130     1.535     1.938
    25   1 H        0.860     0.230     0.966     1.539

Wiberg/Mayer (AO) data.
largest (>0.10) Wiberg bond orders for each atom

     #   Z sym  total        # sym  WBO       # sym  WBO       # sym  WBO
 ---------------------------------------------------------------------------
     1   6 C    3.467 --     2 N    1.298    16 H    0.965    17 H    0.950
                            15 H    0.126
     2   7 N    3.757 --     1 C    1.298     3 C    1.262     6 C    1.095
     3   6 C    3.678 --     2 N    1.262     4 N    1.247    18 H    0.954
     4   7 N    3.539 --     3 C    1.247     5 C    1.193    25 H    0.919
     5   6 C    3.941 --     6 C    1.350    13 N    1.220     4 N    1.193
     6   6 C    3.851 --     5 C    1.350     2 N    1.095     7 C    1.083
     7   6 C    3.959 --     8 O    1.687     9 N    1.094     6 C    1.083
     8   8 O    2.020 --     7 C    1.687     9 N    0.139
     9   7 N    3.531 --    11 C    1.125     7 C    1.094    10 C    0.972
                             8 O    0.139    12 O    0.133
    10   6 C    3.896 --     9 N    0.972    19 H    0.965    21 H    0.957
                            20 H    0.956
    11   6 C    3.958 --    12 O    1.708     9 N    1.125    13 N    1.034
    12   8 O    2.047 --    11 C    1.708     9 N    0.133    13 N    0.118
    13   7 N    3.533 --     5 C    1.220    11 C    1.034    14 C    0.975
                            12 O    0.118
    14   6 C    3.918 --    13 N    0.975    22 H    0.968    23 H    0.967
                            24 H    0.962
    15   1 H    0.164 --     1 C    0.126
    16   1 H    0.985 --     1 C    0.965
    17   1 H    0.977 --     1 C    0.950
    18   1 H    0.983 --     3 C    0.954
    19   1 H    0.983 --    10 C    0.965
    20   1 H    0.976 --    10 C    0.956
    21   1 H    0.976 --    10 C    0.957
    22   1 H    0.986 --    14 C    0.968
    23   1 H    0.985 --    14 C    0.967
    24   1 H    0.982 --    14 C    0.962
    25   1 H    0.947 --     4 N    0.919
 ---------------------------------------------------------------------------

molecular dipole:
                 x           y           z       tot (Debye)
 q only:        2.169      -2.087      -0.286
   full:        2.442      -2.558      -0.320       9.024

           -------------------------------------------------
          | TOTAL ENERGY              -42.110626194440 Eh   |
          | GRADIENT NORM               0.002847134318 Eh/α |
          | HOMO-LUMO GAP               0.730233577390 eV   |
           -------------------------------------------------

 * finished run on 2024/06/05 at 19:58:03.315
