   * xtb version 6.6.1 (8d0f1dd) compiled by 'conda@1efc2f54142f' on 2023-08-01
          program call               : xtb struc.xyz --opt loose --input .xc1 --gfn2

   ID    Z sym.   atoms
    1    6 C      1, 3, 5-7, 10, 11, 14
    2    7 N      2, 4, 9, 13
    3    8 O      8, 12
    4    1 H      15-25
constraining bond 6 18 to    3.7133300 Å, actual value:    3.2169490 Å

          :  Hamiltonian                  GFN2-xTB          :
 * total energy  :   -42.6878031 Eh     change       -0.6650680E-10 Eh
 * total energy  :   -44.5889075 Eh     change       -0.1901104E+01 Eh
 * total energy  :   -47.1978447 Eh     change       -0.2608937E+01 Eh
 * total energy  :   -50.2821961 Eh     change       -0.3084351E+01 Eh
 * total energy  :   -53.9838213 Eh     change       -0.3701625E+01 Eh
 * total energy  :   -57.0428850 Eh     change       -0.3059064E+01 Eh
 * total energy  :   -58.2521424 Eh     change       -0.1209257E+01 Eh
 * total energy  :   -58.9609056 Eh     change       -0.7087632E+00 Eh
 * total energy  :   -57.4849374 Eh     change        0.1475968E+01 Eh
 * total energy  :   -55.8950906 Eh     change        0.1589847E+01 Eh
 * total energy  :   -59.6907609 Eh     change       -0.1325769E-03 Eh
 * total energy  :   -59.6909377 Eh     change       -0.1768399E-03 Eh
 * total energy  :   -59.6910516 Eh     change       -0.1138977E-03 Eh
 * total energy  :   -59.6911216 Eh     change       -0.6994703E-04 Eh
 * total energy  :   -59.6911786 Eh     change       -0.5700646E-04 Eh
 * total energy  :   -59.6912445 Eh     change       -0.6588676E-04 Eh
 * total energy  :   -59.6886954 Eh     change        0.2549056E-02 Eh
 * total energy  :   -59.6913098 Eh     change       -0.2614412E-02 Eh
 * total energy  :   -59.6913342 Eh     change       -0.2432670E-04 Eh
   *** GEOMETRY OPTIMIZATION CONVERGED AFTER 70 ITERATIONS ***

 final structure:
================
25
 xtb: 6.6.1 (8d0f1dd)
C            4.38209093255819        1.57250717420265        0.28923739975002
N            3.60553828937955        0.41716777378325        0.36050922095501
C            2.05073942231769       -1.18857196451046       -0.26832610781643
N            0.85032316130604       -1.67510304058758       -0.26400371716240
C           -0.30935647118186       -0.96235851340985       -0.15226368013356
C            2.72791795455898        0.00421873841497       -0.54176363402134
C           -0.44088268334420        0.49421664874007       -0.21872691081472
O            0.42048755980891        1.32483746645354       -0.41739465168053
N           -1.78714081212092        0.72241635767335       -0.01787832713058
C           -2.40192004040977        2.02835823463789       -0.01774286722632
C           -2.48329368826787       -0.45170765960321        0.16441684095332
O           -3.64974415823756       -0.61061745635058        0.36485132992016
N           -1.52718471840821       -1.49604898742569        0.07154825567522
C           -1.88492488754641       -2.87910631488797        0.22700338248058
H            4.44587565735175        2.00162042394282        1.29365214308215
H            5.40344036883716        1.30299392978785       -0.00491049435591
H            3.99025120982415        2.33007818424579       -0.40003172130099
H            2.67078152196530        0.19466891361236       -0.91642718296011
H           -1.60730045512639        2.77233204375969       -0.01987730821052
H           -3.02552482640437        2.15246310861106       -0.90441374969663
H           -3.02657752118724        2.14059430570168        0.86808328136302
H           -1.37208418443105       -3.32135073335043        1.08355401141162
H           -1.65670638826256       -3.44751605726702       -0.67680785218371
H           -2.96072271694006       -2.91385577314567        0.40272923411454
H            0.74634898806288       -2.69399826142798       -0.27384527711542

          :  Hamiltonian                  GFN2-xTB          :
         :: total energy             -59.691334151548 Eh    ::
         :: gradient norm              0.003455244663 Eh/a0 ::
         :: HOMO-LUMO gap              0.261106713768 eV    ::
         :: SCC energy               -42.644034796115 Eh    ::
         :: -> dispersion             -0.020387083156 Eh    ::
         :: repulsion energy           2.269745271392 Eh    ::

    * Orbital Energies and Occupations

         #    Occupation            Energy/Eh            Energy/eV
      -------------------------------------------------------------
         1        2.0000           -0.8942345             -24.3334
       ...           ...                  ...                  ...
        25        1.9999           -0.6713260             -18.2677
        26        1.9999           -0.6687234             -18.1969
        27        1.9995           -0.6417695             -17.4634
        28        1.9993           -0.6367212             -17.3261
        29        1.9990           -0.6296640             -17.1340
        30        1.9975           -0.6154926             -16.7484
        31        1.9973           -0.6140021             -16.7078
        32        1.9958           -0.6073581             -16.5271
        33        1.9881           -0.5907284             -16.0745
        34        1.9618           -0.5720059             -15.5651
        35        1.9492           -0.5673766             -15.4391
        36        1.7708           -0.5420039             -14.7487
        37        1.2998           -0.5194284             -14.1344 (HOMO)
        38        1.0063           -0.5098329             -13.8733 (LUMO)
        39        0.0350           -0.4458531             -12.1323
        40        0.0008           -0.3861808             -10.5085
        41        0.0001           -0.3496418              -9.5142
        42        0.0000           -0.3293540              -8.9622
        43                         -0.1898359              -5.1657
        44                         -0.1819155              -4.9502
        45                         -0.1202357              -3.2718
        46                         -0.0626584              -1.7050
        47                         -0.0563614              -1.5337
        48                         -0.0279704              -0.7611
       ...                                ...                  ...
        67                         10.4842433             285.2908
      -------------------------------------------------------------
                  HL-Gap            0.0095955 Eh            0.2611 eV

     #   Z          covCN         q      C6AA      α(0)
     1   6 C        3.692    -0.051    21.670     6.661
     2   7 N        1.874    -0.106    24.095     7.276
     3   6 C        1.978     0.002    31.021     8.995
     4   7 N        2.683     0.013    21.028     6.811
     5   6 C        2.959     0.060    26.646     8.467
     6   6 C        2.833     0.022    27.511     8.595
     7   6 C        2.843     0.258    22.665     7.802
     8   8 O        0.857    -0.368    21.045     6.151
     9   7 N        2.803    -0.078    22.750     7.084
    10   6 C        3.690    -0.058    21.807     6.683
    11   6 C        2.834     0.316    21.637     7.623
    12   8 O        0.857    -0.322    20.190     6.024
    13   7 N        2.786    -0.044    22.091     6.981
    14   6 C        3.688    -0.072    22.079     6.725
    15   1 H        0.924     0.122     1.594     1.975
    16   1 H        0.924     0.123     1.590     1.972
    17   1 H        0.924     0.099     1.795     2.095
    18   1 H        1.012     0.216     1.019     1.577
    19   1 H        0.925     0.109     1.709     2.044
    20   1 H        0.924     0.101     1.776     2.084
    21   1 H        0.925     0.104     1.750     2.069
    22   1 H        0.924     0.093     1.851     2.128
    23   1 H        0.924     0.092     1.856     2.130
    24   1 H        0.924     0.126     1.562     1.954
    25   1 H        0.859     0.243     0.912     1.496

Wiberg/Mayer (AO) data.
largest (>0.10) Wiberg bond orders for each atom

     #   Z sym  total        # sym  WBO       # sym  WBO       # sym  WBO
 ---------------------------------------------------------------------------
     1   6 C    3.889 --     2 N    1.100    17 H    0.927    15 H    0.919
                            16 H    0.904
     2   7 N    2.764 --     6 C    1.506     1 C    1.100
     3   6 C    3.109 --     4 N    1.466     6 C    1.383
     4   7 N    3.651 --     3 C    1.466     5 C    1.156    25 H    0.888
     5   6 C    3.659 --    13 N    1.248     4 N    1.156     7 C    1.046
     6   6 C    3.884 --     2 N    1.506     3 C    1.383    18 H    0.873
     7   6 C    3.916 --     8 O    1.646     9 N    1.122     5 C    1.046
     8   8 O    1.932 --     7 C    1.646     9 N    0.134
     9   7 N    3.534 --     7 C    1.122    11 C    1.113    10 C    0.978
                             8 O    0.134    12 O    0.120
    10   6 C    3.906 --     9 N    0.978    19 H    0.970    21 H    0.961
                            20 H    0.957
    11   6 C    3.924 --    12 O    1.721     9 N    1.113    13 N    1.007
    12   8 O    2.008 --    11 C    1.721     9 N    0.120
    13   7 N    3.461 --     5 C    1.248    11 C    1.007    14 C    0.989
    14   6 C    3.921 --    13 N    0.989    24 H    0.964    22 H    0.960
                            23 H    0.960
    15   1 H    0.944 --     1 C    0.919
    16   1 H    0.937 --     1 C    0.904
    17   1 H    0.938 --     1 C    0.927
    18   1 H    0.925 --     6 C    0.873
    19   1 H    0.984 --    10 C    0.970
    20   1 H    0.976 --    10 C    0.957
    21   1 H    0.979 --    10 C    0.961
    22   1 H    0.979 --    14 C    0.960
    23   1 H    0.978 --    14 C    0.960
    24   1 H    0.983 --    14 C    0.964
    25   1 H    0.923 --     4 N    0.888
 ---------------------------------------------------------------------------

molecular dipole:
                 x           y           z       tot (Debye)
 q only:        1.820      -1.215      -0.234
   full:        1.740      -1.317      -0.400       5.638

           -------------------------------------------------
          | TOTAL ENERGY              -59.691334151548 Eh   |
          | GRADIENT NORM               0.003455244663 Eh/α |
          | HOMO-LUMO GAP               0.261106713768 eV   |
           -------------------------------------------------

 * finished run on 2024/06/05 at 19:58:33.335
