   * xtb version 6.6.1 (8d0f1dd) compiled by 'conda@1efc2f54142f' on 2023-08-01
          program call               : xtb struc.xyz --opt loose --input .xc1 --gfn2

   ID    Z sym.   atoms
    1    7 N      1, 17
    2    6 C      2-6, 8, 9, 11-16, 18-23, 25, 26, 28-33
    3    8 O      7, 10, 24, 27
    4    1 H      34-72
constraining bond 6 42 to    4.7133300 Å, actual value:    3.8581982 Å

          :  Hamiltonian                  GFN2-xTB          :
 * total energy  :   -99.5346980 Eh     change       -0.4035485E-08 Eh
 * total energy  :   -99.6683380 Eh     change       -0.1336399E+00 Eh
 * total energy  :   -99.7797115 Eh     change       -0.1113736E+00 Eh
 * total energy  :   -99.8923507 Eh     change       -0.1126392E+00 Eh
 * total energy  :  -100.1009589 Eh     change       -0.2086082E+00 Eh
 * total energy  :  -100.2320720 Eh     change       -0.1311130E+00 Eh
 * total energy  :  -100.4152255 Eh     change       -0.1831536E+00 Eh
 * total energy  :  -100.9094435 Eh     change       -0.4942180E+00 Eh
 * total energy  :  -101.3583371 Eh     change       -0.4488936E+00 Eh
 * total energy  :  -101.4724345 Eh     change       -0.1140973E+00 Eh
 * total energy  :  -101.9728713 Eh     change       -0.2781901E-03 Eh
 * total energy  :  -101.9731324 Eh     change       -0.2610521E-03 Eh
 * total energy  :  -101.9732873 Eh     change       -0.1549499E-03 Eh
 * total energy  :  -101.9734114 Eh     change       -0.1240526E-03 Eh
 * total energy  :  -101.9735194 Eh     change       -0.1080583E-03 Eh
 * total energy  :  -101.9736154 Eh     change       -0.9591616E-04 Eh
 * total energy  :  -101.9736845 Eh     change       -0.6918636E-04 Eh
 * total energy  :  -101.9737374 Eh     change       -0.5281848E-04 Eh
 * total energy  :  -101.9737835 Eh     change       -0.4612569E-04 Eh
   *** GEOMETRY OPTIMIZATION CONVERGED AFTER 106 ITERATIONS ***

 final structure:
================
72
 xtb: 6.6.1 (8d0f1dd)
N           -0.89186948065502        1.45456756435415        0.73124231501032
C           -2.08173855076426        1.83606072643310        1.15646813167989
C           -3.24882872327722        2.00157766576414        0.25566427297722
C           -4.07332891736203        0.75172017315445        0.41121649659542
C           -5.10554998346373        0.09040470447017       -0.49762133335063
C           -5.29134536022061       -1.00873324546632        0.64986267513959
O           -4.54166939258759       -0.32918816565008       -1.69907515087333
C           -5.39056986692036       -1.17550670844918       -2.44834110075593
C           -4.32546200254810       -2.17323769375949        0.88834719106636
O           -4.41642113098163       -3.39841781369503        0.39588706109471
C           -3.43747490825757       -4.32893470318622        0.82573149589863
C           -3.48522006455750       -1.47632149150867        1.70502024766534
C           -4.15975154196722       -0.23632846673102        1.34504704924102
C           -2.77164721995952        2.11200746916672       -1.20197744767516
C           -1.77649048361759        1.00029423303424       -1.51001422170470
C           -0.51291029104616        1.17051629008152       -0.67166911707854
N            0.36202141021880        0.05179952186969       -0.75149792666463
C            1.74224764335861        0.24292903928110       -0.35541276603429
C            2.69609409321927       -0.46180018414017       -1.33649487155705
C            4.12143293452971       -0.24554141057207       -0.91827899096285
C            4.74642604273054        0.97035382419170       -1.15339296845141
C            6.04464632938928        1.19775263915746       -0.72661648941439
C            6.75104451238709        0.20902230258764       -0.05542006469475
O            8.01045950658760        0.32179289463543        0.40921394461333
C            8.70770884168192        1.52997629002697        0.21351612710233
C            6.12566132057859       -1.04648863002090        0.17768324048959
O            6.88631360540572       -1.95739041724637        0.81847368460883
C            6.37360821034960       -3.24972807458266        1.03797654937102
C            4.82167603526198       -1.24572976761081       -0.25026313060382
C           -0.20830670146363       -1.24514004437479       -0.43714854200428
C           -4.12204061017519        3.23468311835166        0.66159143959200
C           -4.70292287990168        3.09926878964477        2.06880599309789
C           -3.34235892522010        4.54499305814491        0.56153306214248
H           -6.05326690068045        0.62594962162056       -0.66719112240687
H           -6.33208004332205       -0.67177512079605       -2.69012904907881
H           -5.60652371797888       -2.09924518830129       -1.90280262525035
H           -4.85354202112625       -1.40677643252314       -3.36510734818684
H           -3.44844891472284       -4.42580022502151        1.91398605303895
H           -3.69934503172994       -5.27963321092154        0.36700179228459
H           -2.44089485934379       -4.01981442420767        0.49829128252643
H           -2.60107777718817       -1.69655970764873        2.26982514243056
H           -5.97961460728331       -1.07222647289985        0.92072847136229
H           -3.62665458830514        2.02612538454909       -1.86935675316413
H           -2.29828846953970        3.07946515814556       -1.36314144806059
H           -2.24960286085912        0.04248373595788       -1.30641597190186
H           -1.49539182833509        1.02195661692663       -2.56211069420955
H           -2.22606524477645        1.93014577594002        2.22099369883336
H            0.03891521240624        2.05161226463609       -1.03027371420874
H            1.93527735959137       -0.13477965195670        0.66001939815957
H            1.96997819113601        1.31074099400015       -0.36433148016480
H            2.52651651463600       -0.05222883632452       -2.33296236893510
H            2.46918926024860       -1.52735930683878       -1.36458083828869
H            4.22186212784441        1.75041059856310       -1.68382738277510
H            6.50306271267306        2.15233629030483       -0.92668723629448
H            8.20367112431233        2.36738949220265        0.70606479885834
H            8.83209313985736        1.75309069838892       -0.85038104886146
H            9.68536554392034        1.38001189165167        0.66752184752301
H            7.17375536270261       -3.80253875492966        1.52643396069273
H            5.49701329745805       -3.22881595510481        1.69358733623798
H            6.11457556671245       -3.74338244925303        0.09617593189332
H            4.33752227883561       -2.19381702308358       -0.07546682029753
H           -0.62751165658200       -1.69955398319610       -1.33728413311475
H           -0.99795630532553       -1.17098085133785        0.31726946510715
H            0.56924820843556       -1.90225856379164       -0.05579911396444
H           -4.95338388059916        3.26261173962161       -0.04970694432305
H           -3.93985620864814        3.25687342403771        2.82732047263751
H           -5.15186970643202        2.12107560266860        2.22168493603029
H           -5.47347457781095        3.85170749430045        2.21582935939895
H           -2.40469497721586        4.47864057172884        1.11097556141388
H           -3.12831984362737        4.81553337502569       -0.46854348789970
H           -3.93302255080288        5.34856365714268        0.99371132470417
H           -0.15407718207257        1.32372780593070        1.40988673525639

          :  Hamiltonian                  GFN2-xTB          :
         :: total energy            -101.973783488406 Eh    ::
         :: gradient norm              0.002657798505 Eh/a0 ::
         :: HOMO-LUMO gap              1.552010145391 eV    ::
         :: SCC energy              -100.657288076093 Eh    ::
         :: -> dispersion             -0.074484107431 Eh    ::
         :: repulsion energy           1.497629947747 Eh    ::

    * Orbital Energies and Occupations

         #    Occupation            Energy/Eh            Energy/eV
      -------------------------------------------------------------
         1        2.0000           -0.8280489             -22.5324
       ...           ...                  ...                  ...
        78        1.9990           -0.5335264             -14.5180
        79        1.9985           -0.5277017             -14.3595
        80        1.9984           -0.5259875             -14.3128
        81        1.9979           -0.5222067             -14.2100
        82        1.9977           -0.5207083             -14.1692
        83        1.9976           -0.5201535             -14.1541
        84        1.9963           -0.5130975             -13.9621
        85        1.9929           -0.5027853             -13.6815
        86        1.9747           -0.4824630             -13.1285
        87        1.9701           -0.4797561             -13.0548
        88        1.9399           -0.4684789             -12.7480
        89        1.8800           -0.4570260             -12.4363
        90        1.8096           -0.4491077             -12.2208 (HOMO)
        91        0.4116           -0.3920724             -10.6688 (LUMO)
        92        0.0369           -0.3505431              -9.5388
        93        0.0022           -0.3052680              -8.3068
        94        0.0019           -0.3034758              -8.2580
        95        0.0013           -0.2973276              -8.0907
        96        0.0000           -0.1806401              -4.9155
        97        0.0000           -0.1608764              -4.3777
        98                         -0.1358434              -3.6965
        99                         -0.1099523              -2.9920
       100                         -0.0982241              -2.6728
       101                         -0.0698751              -1.9014
       ...                                ...                  ...
       171                          1.4580490              39.6755
      -------------------------------------------------------------
                  HL-Gap            0.0570353 Eh            1.5520 eV

     #   Z          covCN         q      C6AA      α(0)
     1   7 N        2.683    -0.096    23.117     7.141
     2   6 C        2.846     0.035    27.219     8.551
     3   6 C        3.907     0.022    20.153     6.381
     4   6 C        3.165    -0.028    28.342     8.700
     5   6 C        4.046     0.124    18.499     6.109
     6   6 C        4.265    -0.085    22.024     6.665
     7   8 O        1.701    -0.301    19.010     5.887
     8   6 C        3.656     0.030    20.357     6.477
     9   6 C        3.345     0.157    22.279     7.453
    10   8 O        1.704    -0.220    17.657     5.673
    11   6 C        3.661     0.023    20.467     6.491
    12   6 C        3.105    -0.089    30.076     8.986
    13   6 C        3.729    -0.015    20.935     6.532
    14   6 C        3.815    -0.069    21.814     6.648
    15   6 C        3.808    -0.079    22.007     6.678
    16   6 C        3.736     0.092    19.130     6.242
    17   7 N        2.730    -0.145    24.140     7.297
    18   6 C        3.748     0.001    20.622     6.477
    19   6 C        3.809    -0.074    21.904     6.662
    20   6 C        2.969     0.005    27.900     8.664
    21   6 C        2.922    -0.048    29.185     8.859
    22   6 C        2.913    -0.067    29.675     8.933
    23   6 C        2.865     0.132    25.102     8.213
    24   8 O        1.706    -0.223    17.698     5.680
    25   6 C        3.645     0.026    20.476     6.503
    26   6 C        2.863     0.133    25.095     8.211
    27   8 O        1.706    -0.225    17.735     5.686
    28   6 C        3.645     0.028    20.446     6.499
    29   6 C        2.920    -0.078    29.939     8.973
    30   6 C        3.697    -0.049    21.622     6.651
    31   6 C        3.853    -0.017    20.850     6.495
    32   6 C        3.755    -0.118    22.807     6.810
    33   6 C        3.755    -0.114    22.731     6.798
    34   1 H        0.923     0.030     2.582     2.513
    35   1 H        0.924     0.043     2.409     2.427
    36   1 H        0.924     0.051     2.313     2.378
    37   1 H        0.925     0.070     2.083     2.257
    38   1 H        0.924     0.062     2.175     2.306
    39   1 H        0.925     0.085     1.931     2.173
    40   1 H        0.924     0.054     2.275     2.359
    41   1 H        0.926     0.041     2.441     2.443
    42   1 H        0.930     0.100     1.782     2.087
    43   1 H        0.925     0.073     2.049     2.239
    44   1 H        0.925     0.055     2.258     2.350
    45   1 H        0.925     0.079     1.988     2.205
    46   1 H        0.925     0.069     2.098     2.265
    47   1 H        0.926     0.076     2.016     2.220
    48   1 H        0.923     0.064     2.149     2.292
    49   1 H        0.923     0.026     2.641     2.541
    50   1 H        0.924     0.043     2.408     2.427
    51   1 H        0.924     0.062     2.180     2.309
    52   1 H        0.925     0.054     2.275     2.359
    53   1 H        0.926     0.046     2.364     2.404
    54   1 H        0.926     0.057     2.235     2.338
    55   1 H        0.924     0.053     2.280     2.361
    56   1 H        0.924     0.056     2.249     2.345
    57   1 H        0.925     0.081     1.965     2.192
    58   1 H        0.925     0.081     1.972     2.196
    59   1 H        0.924     0.049     2.336     2.390
    60   1 H        0.924     0.053     2.281     2.362
    61   1 H        0.926     0.049     2.338     2.391
    62   1 H        0.924     0.057     2.235     2.338
    63   1 H        0.924     0.035     2.519     2.482
    64   1 H        0.925     0.057     2.231     2.336
    65   1 H        0.924     0.050     2.316     2.380
    66   1 H        0.925     0.042     2.420     2.432
    67   1 H        0.925     0.043     2.416     2.430
    68   1 H        0.925     0.057     2.239     2.340
    69   1 H        0.925     0.036     2.503     2.474
    70   1 H        0.925     0.045     2.389     2.417
    71   1 H        0.925     0.060     2.202     2.320
    72   1 H        0.860     0.189     1.164     1.690

Wiberg/Mayer (AO) data.
largest (>0.10) Wiberg bond orders for each atom

     #   Z sym  total        # sym  WBO       # sym  WBO       # sym  WBO
 ---------------------------------------------------------------------------
     1   7 N    3.411 --     2 C    1.443    72 H    0.933    16 C    0.919
     2   6 C    3.549 --     1 N    1.443     3 C    1.029    47 H    0.955
     3   6 C    3.980 --     2 C    1.029    14 C    0.969     4 C    0.958
                            31 C    0.920
     4   6 C    3.819 --    13 C    1.636     5 C    0.965     3 C    0.958
     5   6 C    3.930 --     7 O    1.002     4 C    0.965    34 H    0.944
                             6 C    0.908
     6   6 C    3.941 --    42 H    0.970     9 C    0.969    13 C    0.954
                             5 C    0.908
     7   8 O    2.098 --     5 C    1.002     8 C    0.975
     8   6 C    3.935 --    37 H    0.978    35 H    0.977    36 H    0.976
                             7 O    0.975
     9   6 C    3.884 --    12 C    1.600    10 O    1.146     6 C    0.969
    10   8 O    2.306 --     9 C    1.146    11 C    0.959    12 C    0.123
    11   6 C    3.925 --    39 H    0.978    40 H    0.977    38 H    0.977
                            10 O    0.959
    12   6 C    3.908 --     9 C    1.600    13 C    1.098    41 H    0.967
                            10 O    0.123
    13   6 C    3.851 --     4 C    1.636    12 C    1.098     6 C    0.954
    14   6 C    3.985 --    15 C    1.006    43 H    0.970     3 C    0.969
                            44 H    0.969
    15   6 C    3.981 --    14 C    1.006    16 C    0.986    46 H    0.970
                            45 H    0.962
    16   6 C    3.953 --    17 N    1.036    15 C    0.986    48 H    0.940
                             1 N    0.919
    17   7 N    3.169 --    16 C    1.036    30 C    1.004    18 C    0.999
    18   6 C    3.971 --    17 N    0.999    19 C    0.976    50 H    0.971
                            49 H    0.965
    19   6 C    3.984 --    20 C    1.012    18 C    0.976    52 H    0.971
                            51 H    0.967
    20   6 C    3.938 --    21 C    1.399    29 C    1.386    19 C    1.012
    21   6 C    3.941 --    22 C    1.423    20 C    1.399    53 H    0.968
    22   6 C    3.957 --    21 C    1.423    23 C    1.379    54 H    0.963
    23   6 C    3.886 --    22 C    1.379    26 C    1.221    24 O    1.107
    24   8 O    2.247 --    23 C    1.107    25 C    0.977
    25   6 C    3.929 --    24 O    0.977    57 H    0.977    55 H    0.973
                            56 H    0.972
    26   6 C    3.891 --    29 C    1.390    23 C    1.221    27 O    1.102
    27   8 O    2.248 --    26 C    1.102    28 C    0.979
    28   6 C    3.932 --    27 O    0.979    58 H    0.977    60 H    0.973
                            59 H    0.973
    29   6 C    3.958 --    26 C    1.390    20 C    1.386    61 H    0.962
    30   6 C    3.974 --    17 N    1.004    64 H    0.979    62 H    0.976
                            63 H    0.974
    31   6 C    3.963 --    32 C    1.011    33 C    1.008    65 H    0.966
                             3 C    0.920
    32   6 C    3.989 --    31 C    1.011    66 H    0.983    68 H    0.982
                            67 H    0.980
    33   6 C    3.988 --    31 C    1.008    69 H    0.984    70 H    0.982
                            71 H    0.980
    34   1 H    0.988 --     5 C    0.944
    35   1 H    0.996 --     8 C    0.977
    36   1 H    0.995 --     8 C    0.976
    37   1 H    0.995 --     8 C    0.978
    38   1 H    0.994 --    11 C    0.977
    39   1 H    0.992 --    11 C    0.978
    40   1 H    0.995 --    11 C    0.977
    41   1 H    0.997 --    12 C    0.967
    42   1 H    0.989 --     6 C    0.970
    43   1 H    0.994 --    14 C    0.970
    44   1 H    0.995 --    14 C    0.969
    45   1 H    0.993 --    15 C    0.962
    46   1 H    0.995 --    15 C    0.970
    47   1 H    0.993 --     2 C    0.955
    48   1 H    0.986 --    16 C    0.940
    49   1 H    0.993 --    18 C    0.965
    50   1 H    0.998 --    18 C    0.971
    51   1 H    0.993 --    19 C    0.967
    52   1 H    0.996 --    19 C    0.971
    53   1 H    0.997 --    21 C    0.968
    54   1 H    0.995 --    22 C    0.963
    55   1 H    0.991 --    25 C    0.973
    56   1 H    0.991 --    25 C    0.972
    57   1 H    0.993 --    25 C    0.977
    58   1 H    0.993 --    28 C    0.977
    59   1 H    0.992 --    28 C    0.973
    60   1 H    0.992 --    28 C    0.973
    61   1 H    0.996 --    29 C    0.962
    62   1 H    0.992 --    30 C    0.976
    63   1 H    0.994 --    30 C    0.974
    64   1 H    0.996 --    30 C    0.979
    65   1 H    0.996 --    31 C    0.966
    66   1 H    0.997 --    32 C    0.983
    67   1 H    0.998 --    32 C    0.980
    68   1 H    0.995 --    32 C    0.982
    69   1 H    0.998 --    33 C    0.984
    70   1 H    0.997 --    33 C    0.982
    71   1 H    0.994 --    33 C    0.980
    72   1 H    0.963 --     1 N    0.933
 ---------------------------------------------------------------------------

molecular dipole:
                 x           y           z       tot (Debye)
 q only:       -0.311       0.282       0.287
   full:       -0.408       0.213       0.652       2.029

           -------------------------------------------------
          | TOTAL ENERGY             -101.973783488406 Eh   |
          | GRADIENT NORM               0.002657798505 Eh/α |
          | HOMO-LUMO GAP               1.552010145391 eV   |
           -------------------------------------------------

 * finished run on 2024/04/06 at 11:16:15.676
