   * xtb version 6.6.1 (8d0f1dd) compiled by 'conda@1efc2f54142f' on 2023-08-01
          program call               : xtb xtbopt.xyz --opt crude --input .xc2 --gfn2

   ID    Z sym.   atoms
    1    7 N      1, 17
    2    6 C      2-6, 8, 9, 11-16, 18-23, 25, 26, 28-33
    3    8 O      7, 10, 24, 27
    4    1 H      34-72
########################################################################
[WARNING] Please study the warnings concerning your input carefully
-1- readin_getIntValue: could not parse ''
########################################################################

          :  Hamiltonian                  GFN2-xTB          :
 * total energy  :   -99.1582641 Eh     change       -0.8526513E-12 Eh
 * total energy  :   -99.3163858 Eh     change       -0.1581217E+00 Eh
 * total energy  :   -99.3184974 Eh     change       -0.2111578E-02 Eh
 * total energy  :   -99.3191297 Eh     change       -0.6322755E-03 Eh
 * total energy  :   -99.3192965 Eh     change       -0.1668454E-03 Eh
   *** GEOMETRY OPTIMIZATION CONVERGED AFTER 5 ITERATIONS ***

 final structure:
================
72
 xtb: 6.6.1 (8d0f1dd)
N           -0.88688326779171        1.45884799235781        0.72682235135328
C           -2.07698532833283        1.83974757619216        1.15348025620428
C           -3.24334393695569        2.00598823759013        0.25194647559001
C           -4.06459895767033        0.75207346189791        0.40437223591464
C           -5.10100352640237        0.09089994289426       -0.50726576510319
C           -5.24620410055799       -1.01475506846780        0.61408184673261
O           -4.54753153816225       -0.30599064218394       -1.72354630207089
C           -5.39248737512732       -1.16659473199337       -2.46058519692585
C           -4.31801139760515       -2.18634605984865        0.88596367750676
O           -4.41157525800847       -3.41455332825517        0.40333981594354
C           -3.43105112788822       -4.34309143068868        0.83473146395041
C           -3.47791321904270       -1.48486394786355        1.70146927667425
C           -4.14536443281027       -0.24168758975195        1.33300722650013
C           -2.76608667890975        2.11764398355743       -1.20589329184454
C           -1.77164630027307        1.00510056725563       -1.51358694901159
C           -0.50947328167355        1.17413631998937       -0.67340923146922
N            0.36342877654160        0.05108832649683       -0.74862731701418
C            1.74312707109904        0.23914303278356       -0.34960010442408
C            2.69779360897374       -0.45670585821324       -1.33675840770223
C            4.12329950140604       -0.24176277917861       -0.91839596784798
C            4.74929630629711        0.97381110650363       -1.15307102994498
C            6.04815875761066        1.19993748708288       -0.72757524101443
C            6.75446519346303        0.21027174379087       -0.05769062047884
O            8.01466976644686        0.32099958858856        0.40490713523088
C            8.71370136621994        1.52820517539990        0.20914220570725
C            6.12786055301638       -1.04453766944283        0.17607973646535
O            6.88830877772835       -1.95550857484368        0.81691194145072
C            6.37485867363464       -3.24699524989723        1.03944309939688
C            4.82341202114865       -1.24268442513408       -0.25112767746709
C           -0.21209563286562       -1.24202713996333       -0.43001417442501
C           -4.11716226768289        3.23780085251344        0.65815756484784
C           -4.70420968298201        3.09771744025844        2.06216952837724
C           -3.33608036856041        4.54777861671996        0.56603747476055
H           -6.05156143269394        0.62400490975454       -0.66076993551360
H           -6.34264159778637       -0.67591544760034       -2.69578724093580
H           -5.59227615568043       -2.08864090181218       -1.90612475535265
H           -4.86237356713642       -1.39764162100347       -3.38148998979128
H           -3.44203880255599       -4.44005817442474        1.92294314411579
H           -3.69037923493837       -5.29449712435984        0.37611441410831
H           -2.43493888594595       -4.03222934264483        0.50769531769112
H           -2.60044992824479       -1.70667604019305        2.27744248705266
H           -6.23815546039980       -1.10733772013885        1.02267563103266
H           -3.62165962200171        2.03075651387566       -1.87234958092427
H           -2.29348795812593        3.08526287806941       -1.36814112436283
H           -2.24641978351354        0.04860367961022       -1.30843639000687
H           -1.49105996253622        1.02473888566682       -2.56552866963621
H           -2.21756418842702        1.93645714494669        2.21813885188673
H            0.04644762209632        2.05289978311167       -1.03411151765492
H            1.93512566372667       -0.14981032588396        0.66212165517789
H            1.97213721456437        1.30693175322410       -0.34662618768529
H            2.52689468788894       -0.03973869880050       -2.32979141090141
H            2.47169453307036       -1.52198866286226       -1.37250922928918
H            4.22494432575517        1.75463926727813       -1.68257367038891
H            6.50736447658322        2.15419094588743       -0.92752443031415
H            8.21144037116873        2.36622628530984        0.70231329831088
H            8.83781450663297        1.75144028110434       -0.85473494461536
H            9.69134824263033        1.37642768380786        0.66246043871454
H            7.17517485516490       -3.79946326187674        1.52801373535692
H            5.49916900266478       -3.22402989399224        1.69611057529928
H            6.11432740210746       -3.74231757080109        0.09898984506497
H            4.33895313197249       -2.19069246227858       -0.07657032727206
H           -0.63515548855709       -1.69709201895797       -1.32744495724460
H           -0.99979537354341       -1.16267230276563        0.32639738926348
H            0.56363163197682       -1.90188387972422       -0.04879721901108
H           -4.94535200360189        3.26899252521701       -0.05635020414011
H           -3.94422444307457        3.24949263577203        2.82452250573937
H           -5.15623141522700        2.12014992912109        2.20766830910372
H           -5.47290324267954        3.85168548081768        2.20946842243384
H           -2.40237294582877        4.47992162836633        1.12130787474251
H           -3.11509638672293        4.82038548497566       -0.46164808344314
H           -3.92883356297282        5.35081352647589        0.99619294061251
H           -0.14765332287799        1.31971679414449        1.40308183947647

          :  Hamiltonian                  GFN2-xTB          :
         :: total energy             -99.319296556494 Eh    ::
         :: gradient norm              0.008817012700 Eh/a0 ::
         :: HOMO-LUMO gap              1.548875920515 eV    ::
         :: SCC energy              -100.628078783950 Eh    ::
         :: -> dispersion             -0.074415885026 Eh    ::
         :: repulsion energy           1.307396213227 Eh    ::

    * Orbital Energies and Occupations

         #    Occupation            Energy/Eh            Energy/eV
      -------------------------------------------------------------
         1        2.0000           -0.8283082             -22.5394
       ...           ...                  ...                  ...
        78        1.9990           -0.5334553             -14.5161
        79        1.9985           -0.5275574             -14.3556
        80        1.9984           -0.5261363             -14.3169
        81        1.9978           -0.5218247             -14.1996
        82        1.9977           -0.5207904             -14.1714
        83        1.9976           -0.5201608             -14.1543
        84        1.9963           -0.5132291             -13.9657
        85        1.9927           -0.5025101             -13.6740
        86        1.9746           -0.4826239             -13.1329
        87        1.9697           -0.4797536             -13.0548
        88        1.9396           -0.4685970             -12.7512
        89        1.8822           -0.4575487             -12.4505
        90        1.8088           -0.4492467             -12.2246 (HOMO)
        91        0.4125           -0.3923266             -10.6757 (LUMO)
        92        0.0359           -0.3503036              -9.5322
        93        0.0021           -0.3054377              -8.3114
        94        0.0019           -0.3036396              -8.2625
        95        0.0013           -0.2979692              -8.1082
        96        0.0000           -0.1808299              -4.9206
        97        0.0000           -0.1553245              -4.2266
        98                         -0.1343936              -3.6570
        99                         -0.1104923              -3.0066
       100                         -0.0992926              -2.7019
       101                         -0.0660206              -1.7965
       ...                                ...                  ...
       171                          0.6473965              17.6166
      -------------------------------------------------------------
                  HL-Gap            0.0569201 Eh            1.5489 eV

     #   Z          covCN         q      C6AA      α(0)
     1   7 N        2.683    -0.095    23.108     7.139
     2   6 C        2.846     0.035    27.216     8.550
     3   6 C        3.907     0.022    20.149     6.380
     4   6 C        3.193    -0.025    28.116     8.647
     5   6 C        4.043     0.125    18.475     6.106
     6   6 C        4.319    -0.061    21.588     6.599
     7   8 O        1.701    -0.301    19.011     5.887
     8   6 C        3.657     0.030    20.348     6.475
     9   6 C        3.333     0.161    22.402     7.503
    10   8 O        1.704    -0.219    17.629     5.669
    11   6 C        3.661     0.023    20.469     6.492
    12   6 C        3.129    -0.087    29.952     8.960
    13   6 C        3.711    -0.014    20.956     6.542
    14   6 C        3.815    -0.069    21.815     6.648
    15   6 C        3.808    -0.079    22.000     6.677
    16   6 C        3.736     0.093    19.128     6.241
    17   7 N        2.731    -0.146    24.157     7.300
    18   6 C        3.748     0.001    20.619     6.477
    19   6 C        3.809    -0.074    21.904     6.662
    20   6 C        2.968     0.005    27.899     8.664
    21   6 C        2.922    -0.048    29.184     8.859
    22   6 C        2.913    -0.067    29.675     8.933
    23   6 C        2.865     0.132    25.101     8.212
    24   8 O        1.706    -0.223    17.696     5.680
    25   6 C        3.645     0.026    20.477     6.503
    26   6 C        2.863     0.133    25.095     8.211
    27   8 O        1.706    -0.225    17.734     5.686
    28   6 C        3.645     0.028    20.446     6.499
    29   6 C        2.920    -0.078    29.938     8.973
    30   6 C        3.697    -0.048    21.611     6.650
    31   6 C        3.852    -0.017    20.849     6.494
    32   6 C        3.755    -0.118    22.807     6.809
    33   6 C        3.755    -0.114    22.731     6.798
    34   1 H        0.923     0.033     2.539     2.492
    35   1 H        0.924     0.043     2.413     2.429
    36   1 H        0.924     0.050     2.319     2.381
    37   1 H        0.925     0.070     2.085     2.258
    38   1 H        0.924     0.063     2.169     2.303
    39   1 H        0.925     0.085     1.926     2.170
    40   1 H        0.924     0.054     2.270     2.356
    41   1 H        0.926     0.042     2.425     2.435
    42   1 H        0.926     0.057     2.235     2.338
    43   1 H        0.925     0.074     2.041     2.234
    44   1 H        0.925     0.055     2.258     2.350
    45   1 H        0.925     0.079     1.993     2.208
    46   1 H        0.925     0.069     2.097     2.265
    47   1 H        0.926     0.076     2.017     2.221
    48   1 H        0.923     0.064     2.149     2.293
    49   1 H        0.923     0.026     2.640     2.541
    50   1 H        0.924     0.043     2.412     2.429
    51   1 H        0.924     0.062     2.181     2.309
    52   1 H        0.925     0.054     2.274     2.358
    53   1 H        0.926     0.047     2.363     2.404
    54   1 H        0.926     0.057     2.234     2.337
    55   1 H        0.924     0.053     2.279     2.361
    56   1 H        0.924     0.056     2.248     2.345
    57   1 H        0.925     0.081     1.965     2.192
    58   1 H        0.925     0.081     1.971     2.196
    59   1 H        0.924     0.049     2.335     2.390
    60   1 H        0.924     0.053     2.281     2.362
    61   1 H        0.926     0.049     2.338     2.391
    62   1 H        0.924     0.057     2.237     2.339
    63   1 H        0.924     0.034     2.526     2.486
    64   1 H        0.925     0.057     2.234     2.337
    65   1 H        0.924     0.050     2.314     2.379
    66   1 H        0.925     0.042     2.420     2.432
    67   1 H        0.925     0.043     2.415     2.430
    68   1 H        0.925     0.057     2.237     2.339
    69   1 H        0.925     0.036     2.502     2.474
    70   1 H        0.925     0.045     2.389     2.417
    71   1 H        0.925     0.060     2.201     2.320
    72   1 H        0.860     0.189     1.164     1.690

Wiberg/Mayer (AO) data.
largest (>0.10) Wiberg bond orders for each atom

     #   Z sym  total        # sym  WBO       # sym  WBO       # sym  WBO
 ---------------------------------------------------------------------------
     1   7 N    3.412 --     2 C    1.442    72 H    0.932    16 C    0.922
     2   6 C    3.548 --     1 N    1.442     3 C    1.029    47 H    0.955
     3   6 C    3.979 --     2 C    1.029    14 C    0.968     4 C    0.957
                            31 C    0.921
     4   6 C    3.822 --    13 C    1.639     5 C    0.963     3 C    0.957
     5   6 C    3.931 --     7 O    1.000     4 C    0.963    34 H    0.945
                             6 C    0.919
     6   6 C    3.940 --     9 C    0.973    42 H    0.959    13 C    0.957
                             5 C    0.919
     7   8 O    2.095 --     5 C    1.000     8 C    0.976
     8   6 C    3.936 --    37 H    0.978    35 H    0.977    36 H    0.976
                             7 O    0.976
     9   6 C    3.885 --    12 C    1.596    10 O    1.149     6 C    0.973
    10   8 O    2.308 --     9 C    1.149    11 C    0.958    12 C    0.124
    11   6 C    3.924 --    39 H    0.978    40 H    0.977    38 H    0.977
                            10 O    0.958
    12   6 C    3.908 --     9 C    1.596    13 C    1.098    41 H    0.967
                            10 O    0.124
    13   6 C    3.853 --     4 C    1.639    12 C    1.098     6 C    0.957
    14   6 C    3.985 --    15 C    1.006    43 H    0.970    44 H    0.969
                             3 C    0.968
    15   6 C    3.981 --    14 C    1.006    16 C    0.986    46 H    0.970
                            45 H    0.962
    16   6 C    3.954 --    17 N    1.034    15 C    0.986    48 H    0.940
                             1 N    0.922
    17   7 N    3.167 --    16 C    1.034    30 C    1.005    18 C    0.999
    18   6 C    3.971 --    17 N    0.999    19 C    0.976    50 H    0.971
                            49 H    0.965
    19   6 C    3.984 --    20 C    1.012    18 C    0.976    52 H    0.971
                            51 H    0.967
    20   6 C    3.938 --    21 C    1.399    29 C    1.386    19 C    1.012
    21   6 C    3.941 --    22 C    1.423    20 C    1.399    53 H    0.968
    22   6 C    3.957 --    21 C    1.423    23 C    1.379    54 H    0.963
    23   6 C    3.886 --    22 C    1.379    26 C    1.221    24 O    1.107
    24   8 O    2.247 --    23 C    1.107    25 C    0.977
    25   6 C    3.929 --    57 H    0.977    24 O    0.977    55 H    0.973
                            56 H    0.972
    26   6 C    3.890 --    29 C    1.390    23 C    1.221    27 O    1.102
    27   8 O    2.248 --    26 C    1.102    28 C    0.979
    28   6 C    3.932 --    27 O    0.979    58 H    0.977    60 H    0.973
                            59 H    0.973
    29   6 C    3.958 --    26 C    1.390    20 C    1.386    61 H    0.962
    30   6 C    3.974 --    17 N    1.005    64 H    0.979    62 H    0.976
                            63 H    0.974
    31   6 C    3.963 --    32 C    1.010    33 C    1.008    65 H    0.966
                             3 C    0.921
    32   6 C    3.989 --    31 C    1.010    66 H    0.983    68 H    0.982
                            67 H    0.980
    33   6 C    3.988 --    31 C    1.008    69 H    0.984    70 H    0.982
                            71 H    0.980
    34   1 H    0.988 --     5 C    0.945
    35   1 H    0.996 --     8 C    0.977
    36   1 H    0.995 --     8 C    0.976
    37   1 H    0.995 --     8 C    0.978
    38   1 H    0.994 --    11 C    0.977
    39   1 H    0.992 --    11 C    0.978
    40   1 H    0.995 --    11 C    0.977
    41   1 H    0.997 --    12 C    0.967
    42   1 H    0.996 --     6 C    0.959
    43   1 H    0.993 --    14 C    0.970
    44   1 H    0.995 --    14 C    0.969
    45   1 H    0.993 --    15 C    0.962
    46   1 H    0.995 --    15 C    0.970
    47   1 H    0.993 --     2 C    0.955
    48   1 H    0.986 --    16 C    0.940
    49   1 H    0.993 --    18 C    0.965
    50   1 H    0.998 --    18 C    0.971
    51   1 H    0.993 --    19 C    0.967
    52   1 H    0.996 --    19 C    0.971
    53   1 H    0.997 --    21 C    0.968
    54   1 H    0.995 --    22 C    0.963
    55   1 H    0.991 --    25 C    0.973
    56   1 H    0.991 --    25 C    0.972
    57   1 H    0.993 --    25 C    0.977
    58   1 H    0.993 --    28 C    0.977
    59   1 H    0.992 --    28 C    0.973
    60   1 H    0.992 --    28 C    0.973
    61   1 H    0.996 --    29 C    0.962
    62   1 H    0.992 --    30 C    0.976
    63   1 H    0.994 --    30 C    0.974
    64   1 H    0.996 --    30 C    0.979
    65   1 H    0.996 --    31 C    0.966
    66   1 H    0.997 --    32 C    0.983
    67   1 H    0.998 --    32 C    0.980
    68   1 H    0.995 --    32 C    0.982
    69   1 H    0.998 --    33 C    0.984
    70   1 H    0.997 --    33 C    0.982
    71   1 H    0.994 --    33 C    0.980
    72   1 H    0.963 --     1 N    0.932
 ---------------------------------------------------------------------------

molecular dipole:
                 x           y           z       tot (Debye)
 q only:       -0.228       0.279       0.288
   full:       -0.356       0.203       0.674       2.005

           -------------------------------------------------
          | TOTAL ENERGY              -99.319296556494 Eh   |
          | GRADIENT NORM               0.008817012700 Eh/α |
          | HOMO-LUMO GAP               1.548875920515 eV   |
           -------------------------------------------------

 * finished run on 2024/04/06 at 11:16:16.821
