   * xtb version 6.6.1 (8d0f1dd) compiled by 'conda@1efc2f54142f' on 2023-08-01
          program call               : xtb struc.xyz --opt loose --input .xc1 --gfn2

   ID    Z sym.   atoms
    1    7 N      1, 17
    2    6 C      2-6, 8, 9, 11-16, 18-23, 25, 26, 28-33
    3    8 O      7, 10, 24, 27
    4    1 H      34-72
constraining bond 3 33 to    5.0000000 Å, actual value:    2.5746846 Å

          :  Hamiltonian                  GFN2-xTB          :
 * total energy  :   -98.3538533 Eh     change       -0.4035485E-08 Eh
 * total energy  :   -98.6388314 Eh     change       -0.2849781E+00 Eh
 * total energy  :   -98.8054233 Eh     change       -0.1665919E+00 Eh
 * total energy  :   -98.9226540 Eh     change       -0.1172307E+00 Eh
 * total energy  :   -99.0084660 Eh     change       -0.8581192E-01 Eh
 * total energy  :   -99.0653659 Eh     change       -0.5689989E-01 Eh
 * total energy  :   -99.1004545 Eh     change       -0.3508860E-01 Eh
 * total energy  :   -99.1243467 Eh     change       -0.2389219E-01 Eh
 * total energy  :   -99.1434252 Eh     change       -0.1907855E-01 Eh
 * total energy  :   -99.1603537 Eh     change       -0.1692845E-01 Eh
 * total energy  :   -99.3795428 Eh     change       -0.1852082E-03 Eh
 * total energy  :   -99.3797017 Eh     change       -0.1588750E-03 Eh
 * total energy  :   -99.3798421 Eh     change       -0.1403973E-03 Eh
 * total energy  :   -99.3799748 Eh     change       -0.1327166E-03 Eh
 * total energy  :   -99.3801011 Eh     change       -0.1262978E-03 Eh
 * total energy  :   -99.3802101 Eh     change       -0.1090516E-03 Eh
 * total energy  :   -99.3802972 Eh     change       -0.8703658E-04 Eh
 * total energy  :   -99.3803524 Eh     change       -0.5518830E-04 Eh
 * total energy  :   -99.3803947 Eh     change       -0.4231117E-04 Eh
   *** GEOMETRY OPTIMIZATION CONVERGED AFTER 93 ITERATIONS ***

 final structure:
================
72
 xtb: 6.6.1 (8d0f1dd)
N           -2.28697738174435        2.72662468530279        1.61407218205871
C           -1.99252173729987        2.69467882214913        0.28178869191975
C           -2.35039450553967        1.73193455135284       -0.59591170610571
C           -3.10776409074104        0.54215203783438       -0.19721261008611
C           -4.15698851872762        0.06023885420686       -0.98875093247498
C           -4.88049868273209       -1.06100876633204       -0.62638147085393
O           -5.91509192964589       -1.58095517403047       -1.32312619148033
C           -6.35380372411939       -0.92438336480349       -2.48907663254603
C           -4.54766109339984       -1.75563410900843        0.56818759825662
O           -5.30575988121274       -2.83896383254564        0.83854121823264
C           -5.07050377394151       -3.55977193369148        2.02468788950265
C           -3.49960133091673       -1.28434738995632        1.34431673698529
C           -2.79019311182402       -0.15327382804790        0.96820022530475
C           -1.96383620684797        1.86287762677701       -2.04275885336574
C           -1.03515049506423        0.70890140566470       -2.49519244353377
C            0.27616378147746        0.79399120823951       -1.82604065495683
N            0.78718172842220       -0.09928087539745       -0.99244885971718
C            2.13532039674986        0.06031941505721       -0.50156898997465
C            3.14638850692197       -0.71846343182882       -1.36617421295977
C            4.55070637727106       -0.43342643940783       -0.91337478865084
C            5.17924035841010        0.74397737837669       -1.28474394451446
C            6.46526514787931        1.02904405708673       -0.85363314174727
C            7.15058136852094        0.13834423631425       -0.04060994040478
O            8.39925834776117        0.31104780084271        0.43591833259673
C            9.10181189881167        1.48649440369260        0.10476789005058
C            6.51683793556512       -1.07514926330200        0.34060928065446
O            7.25843379178173       -1.88933636419826        1.12003098440365
C            6.73447357922795       -3.13753221413975        1.50493841011002
C            5.22728030595279       -1.33483952129824       -0.09592893526164
C            0.12608296734702       -1.35006406472148       -0.70827639114570
C           -5.58563524139045        3.02021201684694        1.57598611511179
C           -5.46790396606697        1.85407197257114        2.18966872898159
C           -5.51933231501906        4.34623536360221        2.25221632463189
H           -4.42893942248410        0.59889582668036       -1.88060397053820
H           -6.67787419481240        0.09872470859887       -2.27470157462642
H           -7.20318218424393       -1.50232145233596       -2.84807668580646
H           -5.57507294319095       -0.90929446056200       -3.25985191765502
H           -5.23098337352015       -2.93697388868202        2.91031278726845
H           -5.79353673328997       -4.37305716537610        2.02002934067620
H           -4.05838389479861       -3.97586862060455        2.04910643005806
H           -3.22686089720040       -1.79270027563739        2.25540313186905
H           -1.96651643296598        0.17570133874240        1.58275251324553
H           -2.85132272560021        1.84303413610886       -2.67683485844938
H           -1.46100369425329        2.81600169984178       -2.20811249406204
H           -1.53007401962391       -0.24276394028327       -2.31185986131972
H           -0.88061606682806        0.81760471314513       -3.57361628649882
H           -1.40364689833722        3.53128162036680       -0.07198913816075
H            0.85524302376442        1.69062314767509       -1.98399096681778
H            2.18611388544619       -0.29232199734100        0.53110461004738
H            2.39998064910541        1.11905530614855       -0.51336917865857
H            3.02278977629212       -0.40640288716357       -2.40526585118598
H            2.93938923089288       -1.78678978431445       -1.30021485800715
H            4.67258071008165        1.44733234238845       -1.92818009295338
H            6.93004681361201        1.95016486399024       -1.16456223432548
H            8.58193831302151        2.37914236282743        0.46611634573452
H            9.26107134290453        1.56760571782873       -0.97485563554227
H           10.06426455590676        1.40220989703540        0.60571077188218
H            7.51718354001049       -3.61406664209673        2.09191480121958
H            5.83806578442975       -3.02436040652855        2.12324347252617
H            6.50383284656193       -3.76117937238966        0.63551048909663
H            4.73821660529339       -2.25387047600469        0.18666332398588
H            0.07074806435116       -1.98025135367226       -1.59882717751459
H           -0.88627075717797       -1.17045630412425       -0.34074388516140
H            0.68260647264441       -1.88282817880936        0.05855701581477
H           -5.73436560222579        3.05351238018054        0.50328648273093
H           -3.06470778613445        2.15475333511654        1.91772666281846
H           -5.53079281574651        0.91824711273135        1.66008357221591
H           -5.32957543098375        1.78985108610273        3.25740650100141
H           -5.32187357185939        4.24020285238943        3.31640809696133
H           -4.74151611764904        4.96370065772633        1.79943049733371
H           -6.46221022266193        4.87659460944056        2.12394283170417
H           -2.22363873836085        3.62069175096629        2.06949192131032

          :  Hamiltonian                  GFN2-xTB          :
         :: total energy             -99.380394671763 Eh    ::
         :: gradient norm              0.002972833745 Eh/a0 ::
         :: HOMO-LUMO gap              1.515959998234 eV    ::
         :: SCC energy              -100.807690490476 Eh    ::
         :: -> dispersion             -0.071378418151 Eh    ::
         :: repulsion energy           1.426070604349 Eh    ::

    * Orbital Energies and Occupations

         #    Occupation            Energy/Eh            Energy/eV
      -------------------------------------------------------------
         1        2.0000           -0.8019223             -21.8214
       ...           ...                  ...                  ...
        78        1.9990           -0.5267632             -14.3340
        79        1.9989           -0.5254850             -14.2992
        80        1.9986           -0.5212963             -14.1852
        81        1.9985           -0.5208077             -14.1719
        82        1.9979           -0.5148447             -14.0096
        83        1.9976           -0.5129176             -13.9572
        84        1.9974           -0.5113995             -13.9159
        85        1.9885           -0.4880924             -13.2817
        86        1.9823           -0.4811254             -13.0921
        87        1.9822           -0.4810415             -13.0898
        88        1.9445           -0.4627435             -12.5919
        89        1.8685           -0.4484645             -12.2033
        90        1.8033           -0.4415242             -12.0145 (HOMO)
        91        0.4273           -0.3858137             -10.4985 (LUMO)
        92        0.0096           -0.3220088              -8.7623
        93        0.0040           -0.3079604              -8.3800
        94        0.0032           -0.3044629              -8.2849
        95        0.0028           -0.3025568              -8.2330
        96        0.0009           -0.2837008              -7.7199
        97        0.0003           -0.2672456              -7.2721
        98        0.0000           -0.1795192              -4.8850
        99        0.0000           -0.1776578              -4.8343
       100                         -0.1232467              -3.3537
       101                         -0.0593294              -1.6144
       ...                                ...                  ...
       171                          0.5876522              15.9908
      -------------------------------------------------------------
                  HL-Gap            0.0557105 Eh            1.5160 eV

     #   Z          covCN         q      C6AA      α(0)
     1   7 N        2.635    -0.248    26.455     7.639
     2   6 C        2.828     0.023    27.484     8.591
     3   6 C        2.952    -0.039    28.966     8.827
     4   6 C        2.971    -0.000    28.034     8.685
     5   6 C        2.921    -0.081    30.014     8.984
     6   6 C        2.862     0.129    25.177     8.225
     7   8 O        1.706    -0.236    17.907     5.713
     8   6 C        3.644     0.030    20.407     6.493
     9   6 C        2.864     0.128    25.191     8.227
    10   8 O        1.706    -0.232    17.848     5.704
    11   6 C        3.645     0.029    20.422     6.495
    12   6 C        2.912    -0.074    29.848     8.959
    13   6 C        2.923    -0.061    29.508     8.908
    14   6 C        3.811    -0.064    21.713     6.633
    15   6 C        3.803    -0.067    21.781     6.644
    16   6 C        2.848     0.004    27.939     8.663
    17   7 N        2.729     0.022    20.859     6.783
    18   6 C        3.758    -0.020    20.990     6.532
    19   6 C        3.808    -0.070    21.837     6.652
    20   6 C        2.969    -0.001    28.054     8.688
    21   6 C        2.922    -0.050    29.253     8.870
    22   6 C        2.914    -0.068    29.704     8.937
    23   6 C        2.865     0.132    25.113     8.214
    24   8 O        1.706    -0.226    17.750     5.688
    25   6 C        3.645     0.026    20.465     6.502
    26   6 C        2.863     0.132    25.112     8.214
    27   8 O        1.706    -0.228    17.784     5.694
    28   6 C        3.645     0.028    20.438     6.498
    29   6 C        2.920    -0.079    29.987     8.980
    30   6 C        3.700    -0.074    22.083     6.720
    31   6 C        2.883    -0.021    28.520     8.755
    32   6 C        2.837    -0.101    30.535     9.056
    33   6 C        3.756    -0.109    22.637     6.784
    34   1 H        0.926     0.047     2.357     2.401
    35   1 H        0.924     0.050     2.324     2.384
    36   1 H        0.925     0.078     1.995     2.209
    37   1 H        0.924     0.046     2.371     2.408
    38   1 H        0.924     0.052     2.300     2.371
    39   1 H        0.925     0.079     1.991     2.207
    40   1 H        0.924     0.048     2.348     2.396
    41   1 H        0.926     0.048     2.348     2.396
    42   1 H        0.926     0.043     2.412     2.429
    43   1 H        0.924     0.061     2.190     2.314
    44   1 H        0.924     0.048     2.351     2.398
    45   1 H        0.925     0.064     2.155     2.296
    46   1 H        0.924     0.075     2.028     2.227
    47   1 H        0.925     0.041     2.440     2.443
    48   1 H        0.926     0.068     2.108     2.271
    49   1 H        0.924     0.069     2.097     2.265
    50   1 H        0.924     0.070     2.082     2.257
    51   1 H        0.924     0.055     2.261     2.352
    52   1 H        0.925     0.054     2.270     2.356
    53   1 H        0.926     0.042     2.425     2.435
    54   1 H        0.926     0.056     2.247     2.344
    55   1 H        0.924     0.052     2.296     2.370
    56   1 H        0.924     0.054     2.272     2.357
    57   1 H        0.925     0.080     1.976     2.198
    58   1 H        0.925     0.080     1.979     2.200
    59   1 H        0.924     0.048     2.349     2.397
    60   1 H        0.924     0.051     2.307     2.375
    61   1 H        0.926     0.047     2.360     2.402
    62   1 H        0.924     0.076     2.022     2.224
    63   1 H        0.924     0.085     1.927     2.171
    64   1 H        0.925     0.079     1.992     2.207
    65   1 H        0.925     0.033     2.539     2.492
    66   1 H        0.860     0.185     1.185     1.705
    67   1 H        0.926     0.033     2.546     2.495
    68   1 H        0.926     0.041     2.438     2.442
    69   1 H        0.925     0.048     2.345     2.395
    70   1 H        0.924     0.045     2.384     2.414
    71   1 H        0.925     0.061     2.186     2.312
    72   1 H        0.860     0.178     1.227     1.735

Wiberg/Mayer (AO) data.
largest (>0.10) Wiberg bond orders for each atom

     #   Z sym  total        # sym  WBO       # sym  WBO       # sym  WBO
 ---------------------------------------------------------------------------
     1   7 N    3.258 --     2 C    1.219    72 H    0.951    66 H    0.926
                             3 C    0.105
     2   6 C    3.919 --     3 C    1.635     1 N    1.219    47 H    0.961
     3   6 C    3.891 --     2 C    1.635     4 C    1.074    14 C    1.011
                             1 N    0.105
     4   6 C    3.956 --    13 C    1.371     5 C    1.341     3 C    1.074
     5   6 C    3.957 --     6 C    1.414     4 C    1.341    34 H    0.959
     6   6 C    3.910 --     5 C    1.414     9 C    1.222     7 O    1.093
     7   8 O    2.252 --     6 C    1.093     8 C    0.980
     8   6 C    3.935 --     7 O    0.980    36 H    0.977    37 H    0.974
                            35 H    0.974
     9   6 C    3.894 --    12 C    1.386     6 C    1.222    10 O    1.098
    10   8 O    2.249 --     9 C    1.098    11 C    0.979
    11   6 C    3.934 --    10 O    0.979    39 H    0.977    38 H    0.974
                            40 H    0.974
    12   6 C    3.965 --    13 C    1.417     9 C    1.386    41 H    0.964
    13   6 C    3.945 --    12 C    1.417     4 C    1.371    42 H    0.966
    14   6 C    3.964 --     3 C    1.011    44 H    0.974    43 H    0.956
                            15 C    0.950
    15   6 C    3.984 --    16 C    1.066    45 H    0.968    14 C    0.950
                            46 H    0.940
    16   6 C    3.559 --    17 N    1.419    15 C    1.066    48 H    0.959
    17   7 N    3.478 --    16 C    1.419    30 C    0.998    18 C    0.989
    18   6 C    3.955 --    17 N    0.989    50 H    0.967    19 C    0.966
                            49 H    0.965
    19   6 C    3.976 --    20 C    1.008    52 H    0.974    51 H    0.970
                            18 C    0.966
    20   6 C    3.950 --    21 C    1.410    29 C    1.381    19 C    1.008
    21   6 C    3.954 --    22 C    1.417    20 C    1.410    53 H    0.968
    22   6 C    3.963 --    21 C    1.417    23 C    1.386    54 H    0.963
    23   6 C    3.900 --    22 C    1.386    26 C    1.226    24 O    1.104
    24   8 O    2.254 --    23 C    1.104    25 C    0.977
    25   6 C    3.931 --    24 O    0.977    57 H    0.977    55 H    0.973
                            56 H    0.973
    26   6 C    3.904 --    29 C    1.396    23 C    1.226    27 O    1.099
    27   8 O    2.254 --    26 C    1.099    28 C    0.979
    28   6 C    3.934 --    27 O    0.979    58 H    0.977    60 H    0.974
                            59 H    0.974
    29   6 C    3.962 --    26 C    1.396    20 C    1.381    61 H    0.962
    30   6 C    3.956 --    17 N    0.998    64 H    0.978    62 H    0.966
                            63 H    0.959
    31   6 C    3.976 --    32 C    1.947    33 C    1.045    65 H    0.966
    32   6 C    3.972 --    31 C    1.947    67 H    0.975    68 H    0.974
    33   6 C    3.992 --    31 C    1.045    69 H    0.984    70 H    0.968
                            71 H    0.963
    34   1 H    0.997 --     5 C    0.959
    35   1 H    0.995 --     8 C    0.974
    36   1 H    0.993 --     8 C    0.977
    37   1 H    0.995 --     8 C    0.974
    38   1 H    0.993 --    11 C    0.974
    39   1 H    0.993 --    11 C    0.977
    40   1 H    0.994 --    11 C    0.974
    41   1 H    0.996 --    12 C    0.964
    42   1 H    0.998 --    13 C    0.966
    43   1 H    0.990 --    14 C    0.956
    44   1 H    0.997 --    14 C    0.974
    45   1 H    0.996 --    15 C    0.968
    46   1 H    0.975 --    15 C    0.940
    47   1 H    0.997 --     2 C    0.961
    48   1 H    0.995 --    16 C    0.959
    49   1 H    0.991 --    18 C    0.965
    50   1 H    0.994 --    18 C    0.967
    51   1 H    0.995 --    19 C    0.970
    52   1 H    0.996 --    19 C    0.974
    53   1 H    0.998 --    21 C    0.968
    54   1 H    0.995 --    22 C    0.963
    55   1 H    0.993 --    25 C    0.973
    56   1 H    0.993 --    25 C    0.973
    57   1 H    0.993 --    25 C    0.977
    58   1 H    0.993 --    28 C    0.977
    59   1 H    0.994 --    28 C    0.974
    60   1 H    0.994 --    28 C    0.974
    61   1 H    0.997 --    29 C    0.962
    62   1 H    0.984 --    30 C    0.966
    63   1 H    0.986 --    30 C    0.959
    64   1 H    0.994 --    30 C    0.978
    65   1 H    0.998 --    31 C    0.966
    66   1 H    0.965 --     1 N    0.926
    67   1 H    0.998 --    32 C    0.975
    68   1 H    0.998 --    32 C    0.974
    69   1 H    0.997 --    33 C    0.984
    70   1 H    0.996 --    33 C    0.968
    71   1 H    0.994 --    33 C    0.963
    72   1 H    0.967 --     1 N    0.951
 ---------------------------------------------------------------------------

molecular dipole:
                 x           y           z       tot (Debye)
 q only:        0.505       0.640      -0.463
   full:        0.252       0.914      -0.548       2.782

           -------------------------------------------------
          | TOTAL ENERGY              -99.380394671763 Eh   |
          | GRADIENT NORM               0.002972833745 Eh/α |
          | HOMO-LUMO GAP               1.515959998234 eV   |
           -------------------------------------------------

 * finished run on 2024/04/06 at 11:12:03.080
