   * xtb version 6.6.1 (8d0f1dd) compiled by 'conda@1efc2f54142f' on 2023-08-01
          program call               : xtb struc.xyz --opt loose --input .xc1 --gfn2

   ID    Z sym.   atoms
    1    7 N      1, 17
    2    6 C      2-6, 8, 9, 11-16, 18-23, 25, 26, 28-33
    3    8 O      7, 10, 24, 27
    4    1 H      34-72
constraining bond 13 45 to    5.7133300 Å, actual value:    3.1264075 Å

          :  Hamiltonian                  GFN2-xTB          :
 * total energy  :  -100.5990390 Eh     change       -0.4035485E-08 Eh
 * total energy  :  -101.2844034 Eh     change       -0.6853645E+00 Eh
 * total energy  :  -102.0630323 Eh     change       -0.7786288E+00 Eh
 * total energy  :  -102.9886576 Eh     change       -0.9256253E+00 Eh
 * total energy  :  -101.8185453 Eh     change        0.1170112E+01 Eh
 * total energy  :  -103.3049084 Eh     change       -0.1486363E+01 Eh
 * total energy  :  -103.3777636 Eh     change       -0.7285517E-01 Eh
 * total energy  :  -103.4763962 Eh     change       -0.9863258E-01 Eh
 * total energy  :  -103.5080951 Eh     change       -0.3169890E-01 Eh
 * total energy  :  -103.5222396 Eh     change       -0.1414453E-01 Eh
 * total energy  :  -103.6347298 Eh     change       -0.1672312E-03 Eh
 * total energy  :  -103.6348836 Eh     change       -0.1537925E-03 Eh
 * total energy  :  -103.6350401 Eh     change       -0.1564995E-03 Eh
 * total energy  :  -103.6351858 Eh     change       -0.1456543E-03 Eh
 * total energy  :  -103.6353095 Eh     change       -0.1237308E-03 Eh
 * total energy  :  -103.6353942 Eh     change       -0.8469186E-04 Eh
 * total energy  :  -103.6354324 Eh     change       -0.3823155E-04 Eh
 * total energy  :  -103.6355179 Eh     change       -0.8544747E-04 Eh
 * total energy  :  -103.6355500 Eh     change       -0.3217940E-04 Eh
   *** GEOMETRY OPTIMIZATION CONVERGED AFTER 46 ITERATIONS ***

 final structure:
================
72
 xtb: 6.6.1 (8d0f1dd)
N           -2.44104418717707        2.82453727339041        2.49573802208088
C           -2.14326515710843        2.15233368818060        1.48305201766240
C           -3.09020370378603        1.92183444782105        0.33080871766948
C           -3.67912085723136        0.53092810945059        0.43063368996013
C           -4.59298471933049        0.07790872243259       -0.47531994606325
C           -5.12569256452054       -1.21944526150462       -0.43199796915862
O           -6.05907289162295       -1.69587900894699       -1.25449112898222
C           -6.67090328513344       -0.84756057638186       -2.20162631530509
C           -4.64048223835606       -2.15492110198380        0.55282614810425
O           -5.16268254000015       -3.39298769761185        0.43823431548296
C           -4.78965655005971       -4.37613380258632        1.37665047961290
C           -3.73270159402551       -1.74745310847639        1.47184553261827
C           -3.20018583874273       -0.34268544623747        1.56157512486807
C           -2.21923507135540        1.98313703242434       -0.97158591706712
C           -1.33971536992473        0.78594694561884       -1.11803376971541
C           -0.03124525218919        0.79599891931572       -0.80812836642619
N            0.80790445289823       -0.27115398515230       -0.81875937334630
C            2.19124493723494       -0.13074948952448       -0.45531913537171
C            3.14948352002429       -0.13915236588898       -1.66447916995108
C            4.55952471766301        0.02755455750180       -1.17820497454475
C            5.22782176293755        1.23481870130015       -1.30797434052858
C            6.50705288102320        1.39834621981248       -0.79889095646700
C            7.14105394708572        0.35891185522855       -0.13276925829644
O            8.36526399793444        0.41105165341804        0.42328267505270
C            9.09469315683879        1.61535528607386        0.37136964294063
C            6.46709303534307       -0.88788514709008       -0.00098365690865
O            7.15371736279672       -1.84363457675575        0.65600057582470
C            6.55944638083788       -3.10309421417293        0.85915265876288
C            5.19372405019208       -1.02965529340536       -0.52789947091875
C            0.35234353951054       -1.55419695175747       -1.28763806376462
C           -4.23071284447947        2.98002779014214        0.26541406284436
C           -5.21183897798998        2.81846483361819        1.42492768906022
C           -3.70950011699972        4.41343177140807        0.22819863184395
H           -4.92274317182670        0.73439548484367       -1.26430020559238
H           -7.12254582796682        0.02508058807188       -1.72161676658673
H           -7.44979253236245       -1.44646643336778       -2.66966434789664
H           -5.95911838301616       -0.52141434012100       -2.96569018839704
H           -5.04216692867818       -4.07091393267326        2.39598319961283
H           -5.36061853528994       -5.26356371674610        1.11221467677278
H           -3.72025569575343       -4.60083166865679        1.31576520653674
H           -3.35481506289253       -2.42694710799188        2.21861685510879
H           -3.68669318589376        0.09428595527971        2.47047831689539
H           -2.89292670732434        2.04822847217575       -1.82661197093175
H           -1.61584555445418        2.89037755526387       -0.93808768501741
H           -2.49330487915383       -0.32799919054667        1.63563054454940
H           -1.82357875873071       -0.12123496991344       -1.44274851548810
H           -1.16537986220906        1.67068972498756        1.33749974630536
H            0.43524857535626        1.72238208532175       -0.49757602617983
H            2.46564848733952       -0.94905434704329        0.21918880866021
H            2.32345201578130        0.80805281045778        0.08702863711392
H            2.88123301238170        0.67510106207919       -2.33817277160299
H            3.04406857549952       -1.08136315060645       -2.20460428082761
H            4.75477252095264        2.06073009531864       -1.81656081965334
H            7.00383990447143        2.34643127873349       -0.92426199394299
H            8.54836535043044        2.43515063854653        0.84762865523163
H            9.34108002645438        1.88972734045413       -0.65889217052903
H           10.01320165274307        1.42444583731798        0.92346870603721
H            7.29264027746663       -3.68649975181463        1.41258675099569
H            5.64154756719253       -3.02189421049032        1.45044870639904
H            6.34128202222080       -3.60303294518538       -0.08951331068333
H            4.67988246682813       -1.97444712007634       -0.44303211771206
H            0.06490474913005       -1.51030542056725       -2.34064294806279
H           -0.51263425773486       -1.88738334961913       -0.70923773219404
H            1.14596604064642       -2.28647793993849       -1.17338688369772
H           -4.77409655618115        2.80282192900041       -0.66887548535214
H           -4.70278073358838        2.99714255570290        2.36644190785671
H           -5.64742442057552        1.82208600899393        1.43906304513948
H           -6.01667841166417        3.54135114769827        1.32407458719676
H           -3.16868986070022        4.64623315296287        1.14010024427060
H           -3.06094961831726        4.58481304531073       -0.62641292529036
H           -4.55132950211117        5.09634874215533        0.15039508245510
H           -1.72637318375780        2.93409382747536        3.20893213951604

          :  Hamiltonian                  GFN2-xTB          :
         :: total energy            -103.635550049260 Eh    ::
         :: gradient norm              0.003947553624 Eh/a0 ::
         :: HOMO-LUMO gap              1.189976258707 eV    ::
         :: SCC energy              -100.786445191639 Eh    ::
         :: -> dispersion             -0.072848026784 Eh    ::
         :: repulsion energy           1.618023495731 Eh    ::

    * Orbital Energies and Occupations

         #    Occupation            Energy/Eh            Energy/eV
      -------------------------------------------------------------
         1        2.0000           -0.8275704             -22.5193
       ...           ...                  ...                  ...
        78        1.9985           -0.5313852             -14.4597
        79        1.9980           -0.5273482             -14.3499
        80        1.9977           -0.5251204             -14.2893
        81        1.9976           -0.5244587             -14.2712
        82        1.9960           -0.5162468             -14.0478
        83        1.9959           -0.5157118             -14.0332
        84        1.9951           -0.5130392             -13.9605
        85        1.9943           -0.5107459             -13.8981
        86        1.9720           -0.4852469             -13.2042
        87        1.9708           -0.4845722             -13.1859
        88        1.9295           -0.4702575             -12.7964
        89        1.8275           -0.4552335             -12.3875
        90        1.7328           -0.4474689             -12.1762 (HOMO)
        91        0.5813           -0.4037381             -10.9863 (LUMO)
        92        0.0138           -0.3392122              -9.2304
        93        0.0045           -0.3213756              -8.7451
        94        0.0021           -0.3091541              -8.4125
        95        0.0017           -0.3059319              -8.3248
        96        0.0006           -0.2888152              -7.8591
        97        0.0000           -0.2335062              -6.3540
        98        0.0000           -0.1834001              -4.9906
        99                         -0.1055557              -2.8723
       100                         -0.0790522              -2.1511
       101                         -0.0720220              -1.9598
       ...                                ...                  ...
       171                          1.7006610              46.2773
      -------------------------------------------------------------
                  HL-Gap            0.0437308 Eh            1.1900 eV

     #   Z          covCN         q      C6AA      α(0)
     1   7 N        1.774    -0.275    27.957     7.830
     2   6 C        2.825     0.098    25.828     8.327
     3   6 C        3.907     0.008    20.389     6.418
     4   6 C        2.962     0.016    27.656     8.626
     5   6 C        2.901    -0.071    29.768     8.946
     6   6 C        2.862     0.139    24.962     8.189
     7   8 O        1.706    -0.194    17.240     5.606
     8   6 C        3.645     0.019    20.586     6.521
     9   6 C        2.848     0.133    25.088     8.209
    10   8 O        1.706    -0.235    17.890     5.711
    11   6 C        3.646     0.024    20.498     6.506
    12   6 C        2.900    -0.087    30.170     9.006
    13   6 C        3.811    -0.101    22.419     6.740
    14   6 C        3.814    -0.061    21.654     6.623
    15   6 C        2.891    -0.078    29.946     8.972
    16   6 C        2.842     0.008    27.828     8.645
    17   7 N        2.732    -0.048    22.162     6.992
    18   6 C        3.751    -0.006    20.749     6.496
    19   6 C        3.807    -0.071    21.860     6.656
    20   6 C        2.969     0.006    27.893     8.663
    21   6 C        2.922    -0.046    29.130     8.851
    22   6 C        2.913    -0.066    29.649     8.929
    23   6 C        2.864     0.134    25.072     8.208
    24   8 O        1.706    -0.220    17.649     5.672
    25   6 C        3.645     0.025    20.494     6.506
    26   6 C        2.862     0.134    25.076     8.208
    27   8 O        1.706    -0.223    17.704     5.681
    28   6 C        3.645     0.027    20.450     6.500
    29   6 C        2.920    -0.078    29.959     8.976
    30   6 C        3.699    -0.056    21.759     6.671
    31   6 C        3.851    -0.008    20.679     6.468
    32   6 C        3.756    -0.122    22.885     6.821
    33   6 C        3.755    -0.116    22.785     6.806
    34   1 H        0.926     0.064     2.152     2.294
    35   1 H        0.924     0.063     2.160     2.298
    36   1 H        0.925     0.089     1.884     2.147
    37   1 H        0.924     0.061     2.186     2.312
    38   1 H        0.924     0.054     2.273     2.358
    39   1 H        0.925     0.083     1.944     2.180
    40   1 H        0.924     0.049     2.329     2.386
    41   1 H        0.926     0.059     2.216     2.328
    42   1 H        0.920     0.096     1.824     2.112
    43   1 H        0.924     0.055     2.261     2.352
    44   1 H        0.925     0.052     2.299     2.371
    45   1 H        0.931     0.131     1.527     1.932
    46   1 H        0.926     0.036     2.509     2.477
    47   1 H        0.923     0.011     2.876     2.652
    48   1 H        0.925     0.047     2.354     2.399
    49   1 H        0.924     0.053     2.285     2.364
    50   1 H        0.924     0.057     2.239     2.340
    51   1 H        0.924     0.055     2.264     2.353
    52   1 H        0.924     0.055     2.257     2.349
    53   1 H        0.926     0.051     2.309     2.376
    54   1 H        0.926     0.059     2.206     2.323
    55   1 H        0.924     0.055     2.260     2.351
    56   1 H        0.924     0.058     2.227     2.334
    57   1 H        0.925     0.082     1.954     2.186
    58   1 H        0.925     0.082     1.962     2.190
    59   1 H        0.924     0.049     2.335     2.390
    60   1 H        0.924     0.054     2.276     2.359
    61   1 H        0.926     0.048     2.350     2.397
    62   1 H        0.924     0.062     2.172     2.305
    63   1 H        0.924     0.057     2.230     2.335
    64   1 H        0.925     0.066     2.131     2.283
    65   1 H        0.924     0.037     2.495     2.470
    66   1 H        0.925     0.073     2.055     2.242
    67   1 H        0.925     0.031     2.574     2.509
    68   1 H        0.925     0.052     2.292     2.367
    69   1 H        0.925     0.059     2.215     2.327
    70   1 H        0.925     0.037     2.484     2.465
    71   1 H        0.925     0.054     2.270     2.356
    72   1 H        0.860     0.157     1.352     1.821

Wiberg/Mayer (AO) data.
largest (>0.10) Wiberg bond orders for each atom

     #   Z sym  total        # sym  WBO       # sym  WBO       # sym  WBO
 ---------------------------------------------------------------------------
     1   7 N    3.011 --     2 C    1.957    72 H    0.942
     2   6 C    3.939 --     1 N    1.957     3 C    0.993    47 H    0.931
     3   6 C    3.961 --     2 C    0.993     4 C    0.988    31 C    0.941
                            14 C    0.914
     4   6 C    3.745 --     5 C    1.560    13 C    1.031     3 C    0.988
     5   6 C    3.976 --     4 C    1.560     6 C    1.287    34 H    0.952
     6   6 C    3.696 --     5 C    1.287     7 O    1.160     9 C    1.129
     7   8 O    2.279 --     6 C    1.160     8 C    0.969
     8   6 C    3.923 --    36 H    0.976    35 H    0.972    37 H    0.971
                             7 O    0.969
     9   6 C    3.936 --    12 C    1.584     6 C    1.129    10 O    1.094
    10   8 O    2.261 --     9 C    1.094    11 C    0.976    12 C    0.108
    11   6 C    3.931 --    39 H    0.977    10 O    0.976    40 H    0.975
                            38 H    0.974
    12   6 C    3.805 --     9 C    1.584    13 C    1.035    41 H    0.963
                            10 O    0.108
    13   6 C    3.968 --    12 C    1.035     4 C    1.031    45 H    0.941
                            42 H    0.886
    14   6 C    3.972 --    15 C    1.038    44 H    0.968    43 H    0.962
                             3 C    0.914
    15   6 C    3.824 --    16 C    1.675    14 C    1.038    46 H    0.963
    16   6 C    3.937 --    15 C    1.675    17 N    1.213    48 H    0.954
    17   7 N    3.377 --    16 C    1.213    30 C    1.007    18 C    1.005
    18   6 C    3.963 --    17 N    1.005    50 H    0.969    19 C    0.966
                            49 H    0.963
    19   6 C    3.976 --    20 C    1.013    51 H    0.974    52 H    0.966
                            18 C    0.966
    20   6 C    3.933 --    21 C    1.403    29 C    1.377    19 C    1.013
    21   6 C    3.937 --    22 C    1.417    20 C    1.403    53 H    0.967
    22   6 C    3.953 --    21 C    1.417    23 C    1.381    54 H    0.963
    23   6 C    3.882 --    22 C    1.381    26 C    1.213    24 O    1.111
    24   8 O    2.248 --    23 C    1.111    25 C    0.976
    25   6 C    3.927 --    57 H    0.977    24 O    0.976    55 H    0.972
                            56 H    0.972
    26   6 C    3.888 --    29 C    1.396    23 C    1.213    27 O    1.104
    27   8 O    2.249 --    26 C    1.104    28 C    0.979
    28   6 C    3.931 --    27 O    0.979    58 H    0.977    59 H    0.973
                            60 H    0.973
    29   6 C    3.955 --    26 C    1.396    20 C    1.377    61 H    0.962
    30   6 C    3.968 --    17 N    1.007    64 H    0.980    63 H    0.971
                            62 H    0.970
    31   6 C    3.971 --    33 C    1.010    32 C    1.007    65 H    0.959
                             3 C    0.941
    32   6 C    3.978 --    31 C    1.007    67 H    0.982    68 H    0.982
                            66 H    0.973
    33   6 C    3.984 --    31 C    1.010    70 H    0.982    71 H    0.980
                            69 H    0.978
    34   1 H    0.995 --     5 C    0.952
    35   1 H    0.990 --     8 C    0.972
    36   1 H    0.991 --     8 C    0.976
    37   1 H    0.990 --     8 C    0.971
    38   1 H    0.995 --    11 C    0.974
    39   1 H    0.992 --    11 C    0.977
    40   1 H    0.995 --    11 C    0.975
    41   1 H    0.995 --    12 C    0.963
    42   1 H    0.944 --    13 C    0.886
    43   1 H    0.990 --    14 C    0.962
    44   1 H    0.994 --    14 C    0.968
    45   1 H    0.973 --    13 C    0.941
    46   1 H    0.998 --    15 C    0.963
    47   1 H    0.984 --     2 C    0.931
    48   1 H    0.997 --    16 C    0.954
    49   1 H    0.990 --    18 C    0.963
    50   1 H    0.996 --    18 C    0.969
    51   1 H    0.996 --    19 C    0.974
    52   1 H    0.994 --    19 C    0.966
    53   1 H    0.996 --    21 C    0.967
    54   1 H    0.995 --    22 C    0.963
    55   1 H    0.991 --    25 C    0.972
    56   1 H    0.990 --    25 C    0.972
    57   1 H    0.992 --    25 C    0.977
    58   1 H    0.993 --    28 C    0.977
    59   1 H    0.992 --    28 C    0.973
    60   1 H    0.992 --    28 C    0.973
    61   1 H    0.996 --    29 C    0.962
    62   1 H    0.986 --    30 C    0.970
    63   1 H    0.988 --    30 C    0.971
    64   1 H    0.995 --    30 C    0.980
    65   1 H    0.993 --    31 C    0.959
    66   1 H    0.991 --    32 C    0.973
    67   1 H    0.997 --    32 C    0.982
    68   1 H    0.994 --    32 C    0.982
    69   1 H    0.994 --    33 C    0.978
    70   1 H    0.997 --    33 C    0.982
    71   1 H    0.994 --    33 C    0.980
    72   1 H    0.969 --     1 N    0.942
 ---------------------------------------------------------------------------

molecular dipole:
                 x           y           z       tot (Debye)
 q only:       -0.374      -0.392      -0.149
   full:       -0.030      -0.454      -0.215       1.279

           -------------------------------------------------
          | TOTAL ENERGY             -103.635550049260 Eh   |
          | GRADIENT NORM               0.003947553624 Eh/α |
          | HOMO-LUMO GAP               1.189976258707 eV   |
           -------------------------------------------------

 * finished run on 2024/04/06 at 11:16:31.109
