   * xtb version 6.6.1 (8d0f1dd) compiled by 'conda@1efc2f54142f' on 2023-08-01
          program call               : xtb xtbopt.xyz --opt crude --input .xc2 --gfn2

   ID    Z sym.   atoms
    1    7 N      1, 17
    2    6 C      2-6, 8, 9, 11-16, 18-23, 25, 26, 28-33
    3    8 O      7, 10, 24, 27
    4    1 H      34-72
########################################################################
[WARNING] Please study the warnings concerning your input carefully
-1- readin_getIntValue: could not parse ''
########################################################################

          :  Hamiltonian                  GFN2-xTB          :
 * total energy  :   -99.1673823 Eh     change       -0.1364242E-11 Eh
 * total energy  :   -99.3802772 Eh     change       -0.2128949E+00 Eh
 * total energy  :   -99.3824640 Eh     change       -0.2186820E-02 Eh
 * total energy  :   -99.3833807 Eh     change       -0.9167156E-03 Eh
 * total energy  :   -99.3836730 Eh     change       -0.2922658E-03 Eh
 * total energy  :   -99.3838347 Eh     change       -0.1617316E-03 Eh
   *** GEOMETRY OPTIMIZATION CONVERGED AFTER 6 ITERATIONS ***

 final structure:
================
72
 xtb: 6.6.1 (8d0f1dd)
N           -2.46372397066106        2.81022975793569        2.51051329143898
C           -2.15374847672952        2.15996632128920        1.48692379370758
C           -3.09841186529297        1.91821194970182        0.33611905051726
C           -3.69179697434300        0.52953507688569        0.43826939670244
C           -4.59140038315503        0.07379738482011       -0.48354471936393
C           -5.13260391146841       -1.21981179005410       -0.44043576614995
O           -6.06187270656457       -1.69564932171378       -1.26958868864336
C           -6.66401449933185       -0.85084638674642       -2.22595387391810
C           -4.66620524431434       -2.15445829330586        0.55424764329131
O           -5.17866295409191       -3.39551820402109        0.42788297728463
C           -4.81039492503904       -4.37880807457155        1.36833216722978
C           -3.78502883054562       -1.74094567897420        1.49747946010802
C           -3.27557536436878       -0.34643465726487        1.56842497308088
C           -2.22534032257958        1.97728155171128       -0.96556344531878
C           -1.34529232758543        0.78071192697442       -1.10811528070714
C           -0.03575636942375        0.79531134303135       -0.80279420632892
N            0.80650419005591       -0.26948818326680       -0.81220886877395
C            2.18993956020302       -0.12608703311152       -0.44959559733619
C            3.14866965248417       -0.14133581429620       -1.65846323407641
C            4.55869218353564        0.02780467902168       -1.17230910174104
C            5.22321033112461        1.23770864846112       -1.29791337785791
C            6.50313649641289        1.40251522852724       -0.79104988740348
C            7.14239725742760        0.36165593869793       -0.13205258303020
O            8.36941947984810        0.41396052529950        0.41782223104488
C            9.10086322039280        1.61657247989007        0.35690783773822
C            6.47142677642068       -0.88697693994333       -0.00240161968554
O            7.16182136139094       -1.84399140953469        0.64895447246790
C            6.57251077608839       -3.10716252987127        0.84407898096074
C            5.19688370634358       -1.02980142230298       -0.52657815808049
C            0.35118614343694       -1.55552702858992       -1.27389509389250
C           -4.23697803729901        2.97991463293101        0.26435611443830
C           -5.22159980574188        2.82622171624136        1.42184465919875
C           -3.70977457993270        4.41135269540982        0.22442196236252
H           -4.90479440299023        0.72549798489844       -1.28317318052648
H           -7.12004669828374        0.02403719084393       -1.75410651687591
H           -7.43887204136435       -1.45163831419072       -2.69862360617799
H           -5.94558735007883       -0.52832340696282       -2.98513341187380
H           -5.07936928415060       -4.07976899746819        2.38526729631350
H           -5.36878267268021       -5.27105273129766        1.09328469919446
H           -3.73797627615458       -4.59253911824478        1.32094837388583
H           -3.43103037655871       -2.41282472501732        2.26235403193318
H           -3.63199948861916        0.11342238222395        2.50597689424352
H           -2.89656609417546        2.04241050787877       -1.82265480960881
H           -1.62152287676739        2.88425315342282       -0.93135844679867
H           -2.18100618327435       -0.35317792258567        1.66368501426748
H           -1.82986991029578       -0.12940452484773       -1.42324513703730
H           -1.16130722010865        1.71224193339559        1.32907510603252
H            0.43000159658033        1.72446294152361       -0.49888055258155
H            2.46464873513245       -0.94074866874990        0.22958745449291
H            2.32147696062313        0.81598574364697        0.08721093193604
H            2.88098884011638        0.66922999615358       -2.33704054865978
H            3.04387586862044       -1.08693553458356       -2.19304882569273
H            4.74676133855282        2.06461890550536       -1.80185020204539
H            6.99658630714645        2.35283574817913       -0.91259498221300
H            8.56612379464461        2.43564900482653        0.84728574011398
H            9.32806637037517        1.89498945131278       -0.67646432259552
H           10.02908930453600        1.42082536151151        0.89038424195333
H            7.30830585406335       -3.69155407554562        1.39324638822161
H            5.65454257001240       -3.03358530894234        1.43644028738950
H            6.35581861445101       -3.60148236850562       -0.10803475373498
H            4.68531075993830       -1.97604972106417       -0.44353866489204
H            0.06470912640537       -1.51764736754711       -2.32837993301329
H           -0.51538592285474       -1.88489817201307       -0.69446206043040
H            1.14571452421168       -2.28717813152514       -1.15370603902867
H           -4.77865916468644        2.80120544771015       -0.67081892640071
H           -4.71442638740362        3.00824692216176        2.36383736351628
H           -5.65854199624617        1.83043019158672        1.43994929358194
H           -6.02488442852125        3.55057259624768        1.31519027826607
H           -3.17163975875142        4.64490542895564        1.13797864270805
H           -3.05683528714442        4.57812117089676       -0.62810190750531
H           -4.54831753504397        5.09800110982416        0.14133016012852
H           -1.74656319895194        2.93109634958189        3.21933396283661

          :  Hamiltonian                  GFN2-xTB          :
         :: total energy             -99.383834702240 Eh    ::
         :: gradient norm              0.003348046210 Eh/a0 ::
         :: HOMO-LUMO gap              1.190451225874 eV    ::
         :: SCC energy              -100.760272404534 Eh    ::
         :: -> dispersion             -0.072825312382 Eh    ::
         :: repulsion energy           1.375394083966 Eh    ::

    * Orbital Energies and Occupations

         #    Occupation            Energy/Eh            Energy/eV
      -------------------------------------------------------------
         1        2.0000           -0.8272607             -22.5109
       ...           ...                  ...                  ...
        78        1.9985           -0.5315428             -14.4640
        79        1.9980           -0.5274342             -14.3522
        80        1.9977           -0.5251818             -14.2909
        81        1.9976           -0.5242666             -14.2660
        82        1.9960           -0.5163135             -14.0496
        83        1.9959           -0.5158229             -14.0363
        84        1.9951           -0.5131305             -13.9630
        85        1.9942           -0.5105011             -13.8914
        86        1.9709           -0.4847209             -13.1899
        87        1.9705           -0.4844866             -13.1836
        88        1.9295           -0.4703469             -12.7988
        89        1.8276           -0.4553397             -12.3904
        90        1.7337           -0.4476180             -12.1803 (HOMO)
        91        0.5824           -0.4038698             -10.9899 (LUMO)
        92        0.0137           -0.3391871              -9.2298
        93        0.0043           -0.3208584              -8.7310
        94        0.0021           -0.3092398              -8.4148
        95        0.0017           -0.3060495              -8.3280
        96        0.0006           -0.2889186              -7.8619
        97        0.0000           -0.2345932              -6.3836
        98        0.0000           -0.1835193              -4.9938
        99                         -0.1060002              -2.8844
       100                         -0.0771302              -2.0988
       101                         -0.0705002              -1.9184
       ...                                ...                  ...
       171                          0.5800832              15.7849
      -------------------------------------------------------------
                  HL-Gap            0.0437483 Eh            1.1905 eV

     #   Z          covCN         q      C6AA      α(0)
     1   7 N        1.774    -0.276    27.966     7.831
     2   6 C        2.825     0.099    25.801     8.323
     3   6 C        3.907     0.008    20.390     6.418
     4   6 C        2.962     0.021    27.527     8.606
     5   6 C        2.903    -0.070    29.746     8.943
     6   6 C        2.861     0.140    24.954     8.188
     7   8 O        1.706    -0.195    17.252     5.608
     8   6 C        3.644     0.020    20.584     6.521
     9   6 C        2.850     0.134    25.072     8.207
    10   8 O        1.706    -0.234    17.879     5.709
    11   6 C        3.646     0.024    20.498     6.506
    12   6 C        2.901    -0.081    30.017     8.983
    13   6 C        3.812    -0.064    21.712     6.632
    14   6 C        3.814    -0.061    21.660     6.624
    15   6 C        2.891    -0.078    29.936     8.970
    16   6 C        2.842     0.008    27.829     8.645
    17   7 N        2.732    -0.048    22.171     6.993
    18   6 C        3.751    -0.006    20.746     6.496
    19   6 C        3.807    -0.071    21.861     6.656
    20   6 C        2.969     0.006    27.894     8.663
    21   6 C        2.921    -0.046    29.130     8.851
    22   6 C        2.913    -0.066    29.649     8.929
    23   6 C        2.864     0.134    25.071     8.208
    24   8 O        1.706    -0.220    17.649     5.672
    25   6 C        3.645     0.025    20.494     6.506
    26   6 C        2.862     0.134    25.076     8.208
    27   8 O        1.706    -0.223    17.704     5.681
    28   6 C        3.645     0.027    20.451     6.500
    29   6 C        2.920    -0.078    29.958     8.976
    30   6 C        3.698    -0.056    21.753     6.671
    31   6 C        3.851    -0.007    20.673     6.467
    32   6 C        3.755    -0.121    22.880     6.820
    33   6 C        3.755    -0.116    22.780     6.805
    34   1 H        0.926     0.064     2.149     2.292
    35   1 H        0.924     0.063     2.162     2.299
    36   1 H        0.925     0.089     1.884     2.147
    37   1 H        0.924     0.061     2.189     2.314
    38   1 H        0.924     0.054     2.270     2.356
    39   1 H        0.925     0.084     1.942     2.179
    40   1 H        0.924     0.049     2.329     2.386
    41   1 H        0.926     0.060     2.196     2.317
    42   1 H        0.923     0.096     1.819     2.109
    43   1 H        0.924     0.055     2.260     2.351
    44   1 H        0.925     0.052     2.296     2.369
    45   1 H        0.923     0.074     2.039     2.233
    46   1 H        0.926     0.035     2.511     2.478
    47   1 H        0.923     0.011     2.874     2.651
    48   1 H        0.925     0.047     2.355     2.400
    49   1 H        0.924     0.053     2.287     2.365
    50   1 H        0.924     0.057     2.239     2.340
    51   1 H        0.924     0.055     2.263     2.352
    52   1 H        0.924     0.055     2.257     2.350
    53   1 H        0.926     0.051     2.310     2.377
    54   1 H        0.926     0.059     2.206     2.323
    55   1 H        0.924     0.055     2.259     2.350
    56   1 H        0.924     0.058     2.228     2.334
    57   1 H        0.925     0.082     1.954     2.186
    58   1 H        0.925     0.082     1.962     2.190
    59   1 H        0.924     0.049     2.335     2.390
    60   1 H        0.924     0.054     2.276     2.359
    61   1 H        0.926     0.048     2.349     2.397
    62   1 H        0.924     0.062     2.172     2.304
    63   1 H        0.924     0.057     2.235     2.338
    64   1 H        0.925     0.066     2.131     2.283
    65   1 H        0.924     0.037     2.491     2.468
    66   1 H        0.925     0.073     2.048     2.238
    67   1 H        0.925     0.031     2.568     2.506
    68   1 H        0.925     0.052     2.291     2.367
    69   1 H        0.925     0.058     2.227     2.334
    70   1 H        0.925     0.037     2.483     2.464
    71   1 H        0.925     0.054     2.266     2.354
    72   1 H        0.860     0.158     1.349     1.819

Wiberg/Mayer (AO) data.
largest (>0.10) Wiberg bond orders for each atom

     #   Z sym  total        # sym  WBO       # sym  WBO       # sym  WBO
 ---------------------------------------------------------------------------
     1   7 N    3.011 --     2 C    1.956    72 H    0.942
     2   6 C    3.939 --     1 N    1.956     3 C    0.993    47 H    0.929
     3   6 C    3.961 --     2 C    0.993     4 C    0.989    31 C    0.939
                            14 C    0.915
     4   6 C    3.747 --     5 C    1.552    13 C    1.043     3 C    0.989
     5   6 C    3.976 --     4 C    1.552     6 C    1.290    34 H    0.953
     6   6 C    3.699 --     5 C    1.290     7 O    1.158     9 C    1.130
     7   8 O    2.278 --     6 C    1.158     8 C    0.969
     8   6 C    3.923 --    36 H    0.976    35 H    0.972    37 H    0.971
                             7 O    0.969
     9   6 C    3.936 --    12 C    1.579     6 C    1.130    10 O    1.095
    10   8 O    2.261 --     9 C    1.095    11 C    0.976    12 C    0.107
    11   6 C    3.931 --    39 H    0.977    10 O    0.976    40 H    0.975
                            38 H    0.974
    12   6 C    3.808 --     9 C    1.579    13 C    1.047    41 H    0.963
                            10 O    0.107
    13   6 C    3.984 --    12 C    1.047     4 C    1.043    45 H    0.921
                            42 H    0.901
    14   6 C    3.972 --    15 C    1.039    44 H    0.968    43 H    0.962
                             3 C    0.915
    15   6 C    3.825 --    16 C    1.675    14 C    1.039    46 H    0.963
    16   6 C    3.937 --    15 C    1.675    17 N    1.212    48 H    0.954
    17   7 N    3.377 --    16 C    1.212    30 C    1.007    18 C    1.005
    18   6 C    3.963 --    17 N    1.005    50 H    0.969    19 C    0.966
                            49 H    0.963
    19   6 C    3.976 --    20 C    1.013    51 H    0.974    52 H    0.967
                            18 C    0.966
    20   6 C    3.933 --    21 C    1.403    29 C    1.377    19 C    1.013
    21   6 C    3.937 --    22 C    1.418    20 C    1.403    53 H    0.967
    22   6 C    3.953 --    21 C    1.418    23 C    1.381    54 H    0.963
    23   6 C    3.882 --    22 C    1.381    26 C    1.214    24 O    1.111
    24   8 O    2.248 --    23 C    1.111    25 C    0.976
    25   6 C    3.927 --    57 H    0.977    24 O    0.976    55 H    0.972
                            56 H    0.972
    26   6 C    3.888 --    29 C    1.396    23 C    1.214    27 O    1.104
    27   8 O    2.249 --    26 C    1.104    28 C    0.979
    28   6 C    3.931 --    27 O    0.979    58 H    0.977    59 H    0.973
                            60 H    0.973
    29   6 C    3.955 --    26 C    1.396    20 C    1.377    61 H    0.962
    30   6 C    3.968 --    17 N    1.007    64 H    0.980    63 H    0.971
                            62 H    0.970
    31   6 C    3.970 --    33 C    1.010    32 C    1.007    65 H    0.959
                             3 C    0.939
    32   6 C    3.977 --    31 C    1.007    67 H    0.982    68 H    0.981
                            66 H    0.972
    33   6 C    3.984 --    31 C    1.010    70 H    0.982    71 H    0.980
                            69 H    0.979
    34   1 H    0.995 --     5 C    0.953
    35   1 H    0.990 --     8 C    0.972
    36   1 H    0.991 --     8 C    0.976
    37   1 H    0.990 --     8 C    0.971
    38   1 H    0.995 --    11 C    0.974
    39   1 H    0.992 --    11 C    0.977
    40   1 H    0.995 --    11 C    0.975
    41   1 H    0.995 --    12 C    0.963
    42   1 H    0.949 --    13 C    0.901
    43   1 H    0.990 --    14 C    0.962
    44   1 H    0.994 --    14 C    0.968
    45   1 H    0.966 --    13 C    0.921
    46   1 H    0.998 --    15 C    0.963
    47   1 H    0.984 --     2 C    0.929
    48   1 H    0.997 --    16 C    0.954
    49   1 H    0.990 --    18 C    0.963
    50   1 H    0.996 --    18 C    0.969
    51   1 H    0.996 --    19 C    0.974
    52   1 H    0.994 --    19 C    0.967
    53   1 H    0.996 --    21 C    0.967
    54   1 H    0.995 --    22 C    0.963
    55   1 H    0.991 --    25 C    0.972
    56   1 H    0.990 --    25 C    0.972
    57   1 H    0.992 --    25 C    0.977
    58   1 H    0.993 --    28 C    0.977
    59   1 H    0.992 --    28 C    0.973
    60   1 H    0.992 --    28 C    0.973
    61   1 H    0.996 --    29 C    0.962
    62   1 H    0.986 --    30 C    0.970
    63   1 H    0.988 --    30 C    0.971
    64   1 H    0.995 --    30 C    0.980
    65   1 H    0.993 --    31 C    0.959
    66   1 H    0.991 --    32 C    0.972
    67   1 H    0.997 --    32 C    0.982
    68   1 H    0.994 --    32 C    0.981
    69   1 H    0.994 --    33 C    0.979
    70   1 H    0.997 --    33 C    0.982
    71   1 H    0.994 --    33 C    0.980
    72   1 H    0.969 --     1 N    0.942
 ---------------------------------------------------------------------------

molecular dipole:
                 x           y           z       tot (Debye)
 q only:       -0.400      -0.392      -0.179
   full:       -0.013      -0.442      -0.228       1.265

           -------------------------------------------------
          | TOTAL ENERGY              -99.383834702240 Eh   |
          | GRADIENT NORM               0.003348046210 Eh/α |
          | HOMO-LUMO GAP               1.190451225874 eV   |
           -------------------------------------------------

 * finished run on 2024/04/06 at 11:16:32.371
