   * xtb version 6.6.1 (8d0f1dd) compiled by 'conda@1efc2f54142f' on 2023-08-01
          program call               : xtb xtbopt.xyz --opt crude --input .xc2 --gfn2

   ID    Z sym.   atoms
    1    7 N      1, 17
    2    6 C      2-6, 8, 9, 11-16, 18-23, 25, 26, 28-33
    3    8 O      7, 10, 24, 27
    4    1 H      34-72

          :  Hamiltonian                  GFN2-xTB          :
 * total energy  :   -99.2678888 Eh     change       -0.1756462E-10 Eh
   *** GEOMETRY OPTIMIZATION CONVERGED AFTER 1 ITERATIONS ***

 final structure:
================
72
 xtb: 6.6.1 (8d0f1dd)
N           -1.86787671369570        2.81900136660680        2.26199597302705
C           -1.81231043797081        2.12370882007288        1.22604756190518
C           -2.96169132290979        1.91328097182729        0.27756247996484
C           -3.43210086687790        0.46921788092310        0.36040765732717
C           -4.36217079706030       -0.01227568876430       -0.55399329937523
C           -4.83573685160403       -1.32090090139826       -0.48048751656797
O           -5.75372774118249       -1.86338210213611       -1.31305658726607
C           -6.30349782531381       -1.27877314944457       -2.34199236947437
C           -4.36601092515772       -2.19272835822620        0.53955152454681
O           -4.88062662977089       -3.43537542071699        0.52718767299015
C           -4.49761449374691       -4.34649019724141        1.53350607664339
C           -3.43601634411970       -1.70133782513630        1.44284360898635
C           -2.98027036165204       -0.39210980379908        1.35464026617485
C           -2.40658246937675        2.21097663077194       -1.14042583958189
C           -1.47562503658759        1.12322578984382       -1.70714453466093
C           -0.13500155025733        1.10713710415117       -1.08011145649093
N            0.53004222526860        0.01874842994461       -0.70684989265315
C            1.91036940719689        0.10762444058354       -0.29188179847696
C            2.87899963618393       -0.34551612104702       -1.40144758371082
C            4.29825876085274       -0.14425153088740       -0.94767794591851
C            4.93836921615200        1.06663836404540       -1.15607618749878
C            6.23576630600061        1.27062292314644       -0.71239014473378
C            6.91930017867375        0.26498145652982       -0.04427784508679
O            8.17621286476719        0.34808446140483        0.42845957655811
C            8.90877401936996        1.53578010953692        0.23233521818213
C            6.26922055793862       -0.98083662358443        0.17803198892867
O            7.00680859427907       -1.90014199575774        0.83160255687825
C            6.46431423781407       -3.17555449414670        1.07573776666093
C            4.97130830923822       -1.16070897717406       -0.27372136002110
C           -0.06378051424477       -1.29573927851194       -0.75704345793102
C           -4.17949364342948        2.83959451607658        0.57435980072155
C           -4.82217829255824        2.50845084786846        1.91939716059320
C           -3.82954940403234        4.32421653091759        0.52366131388920
H           -4.74360703719266        0.64145351655184       -1.32069319664692
H           -8.62060225295742        0.12341852603618       -3.63452057083935
H           -7.03735242621751       -1.86475257091213       -2.85935401513051
H           -6.09546367823603       -0.26816555970101       -2.64150798654032
H           -4.74821055057529       -3.97122485037500        2.52944799393080
H           -5.06532886679751       -5.25349520998648        1.33630907215481
H           -3.42760191052738       -4.57016926895342        1.48287893555412
H           -3.06627859233117       -2.32717119989325        2.23868745258533
H           -2.28286697929448       -0.04107548150416        2.09877423347990
H           -3.24397014902056        2.33111936553214       -1.82657096192506
H           -1.86748878066830        3.15833636175998       -1.11230566398711
H           -1.96197343090064        0.15139437482317       -1.64250921902774
H           -1.33629299771459        1.35397704132399       -2.77149715816399
H           -0.89350844434467        1.61825473386728        0.87078711239532
H            0.41053797820899        2.03864212629503       -1.04948611034357
H            2.05890492202284       -0.51479416377636        0.59488345779856
H            2.14090167570247        1.14106710152999       -0.02563412977662
H            2.68791845913471        0.24688345639667       -2.29777409685846
H            2.70357319682437       -1.39576019340650       -1.63705614206046
H            4.43164545501863        1.86225964121383       -1.68092644963735
H            6.70967539386445        2.22070241362772       -0.89657952315983
H            8.43288271610594        2.38680671496205        0.72902154730629
H            9.03557336392425        1.75691042537384       -0.83158854245694
H            9.88316751016663        1.35478055358699        0.68193086386364
H            7.24560475196570       -3.73104320024948        1.59081930693041
H            5.57889128735026       -3.11933424261407        1.71722793936100
H            6.21022008275580       -3.68913738829842        0.14332747844343
H            4.47351571002033       -2.10495353488563       -0.11686466550704
H           -0.22944646058149       -1.61609477513557       -1.78814802148096
H           -1.02020458428239       -1.30287157330114       -0.22830906512792
H            0.60188006319589       -2.00817459842574       -0.27637109936348
H           -4.91987687094312        2.64133083110011       -0.20900680208607
H           -4.12656410745974        2.71663719784372        2.72564403588015
H           -5.11968031054863        1.46379710281654        1.96937276132289
H           -5.70813107948706        3.12203615645970        2.05888555526381
H           -3.08049778910525        4.56164565008065        1.27261280710807
H           -3.46623822782275        4.62338008687586       -0.45581536437592
H           -4.72101433580245        4.90694464587962        0.73949307691648
H           -1.02205919863707        2.91541113370472        2.81492961226991

          :  Hamiltonian                  GFN2-xTB          :
         :: total energy             -99.267888804949 Eh    ::
         :: gradient norm              0.002969078389 Eh/a0 ::
         :: HOMO-LUMO gap              0.437936165849 eV    ::
         :: SCC energy              -100.642755128792 Eh    ::
         :: -> dispersion             -0.074826824522 Eh    ::
         :: repulsion energy           1.373670281187 Eh    ::

    * Orbital Energies and Occupations

         #    Occupation            Energy/Eh            Energy/eV
      -------------------------------------------------------------
         1        2.0000           -0.8496328             -23.1197
       ...           ...                  ...                  ...
        78        1.9985           -0.5314531             -14.4616
        79        1.9983           -0.5298908             -14.4191
        80        1.9983           -0.5293889             -14.4054
        81        1.9971           -0.5208748             -14.1737
        82        1.9967           -0.5190312             -14.1236
        83        1.9966           -0.5183556             -14.1052
        84        1.9954           -0.5136530             -13.9772
        85        1.9953           -0.5132189             -13.9654
        86        1.9788           -0.4893676             -13.3164
        87        1.9724           -0.4851468             -13.2015
        88        1.9440           -0.4736983             -12.8900
        89        1.8448           -0.4567196             -12.4280
        90        1.1692           -0.4229360             -11.5087 (HOMO)
        91        0.6749           -0.4068422             -11.0707 (LUMO)
        92        0.4126           -0.3961919             -10.7809
        93        0.0170           -0.3421581              -9.3106
        94        0.0073           -0.3286786              -8.9438
        95        0.0047           -0.3217727              -8.7559
        96        0.0028           -0.3133025              -8.5254
        97        0.0024           -0.3109836              -8.4623
        98        0.0000           -0.2039160              -5.5488
        99        0.0000           -0.1885266              -5.1301
       100                         -0.1387566              -3.7758
       101                         -0.0759018              -2.0654
       ...                                ...                  ...
       171                          0.5757752              15.6676
      -------------------------------------------------------------
                  HL-Gap            0.0160939 Eh            0.4379 eV

     #   Z          covCN         q      C6AA      α(0)
     1   7 N        1.774    -0.269    27.797     7.807
     2   6 C        2.826     0.100    25.776     8.319
     3   6 C        3.907     0.006    20.420     6.423
     4   6 C        2.973     0.006    27.884     8.662
     5   6 C        2.919    -0.068    29.705     8.938
     6   6 C        2.866     0.103    25.722     8.313
     7   8 O        1.710    -0.101    15.843     5.374
     8   6 C        2.731     0.034    27.222     8.542
     9   6 C        2.862     0.135    25.052     8.204
    10   8 O        1.706    -0.230    17.814     5.699
    11   6 C        3.646     0.025    20.493     6.506
    12   6 C        2.913    -0.074    29.846     8.958
    13   6 C        2.922    -0.048    29.203     8.862
    14   6 C        3.812    -0.066    21.752     6.638
    15   6 C        3.802    -0.069    21.816     6.650
    16   6 C        2.843     0.005    27.913     8.659
    17   7 N        2.729     0.009    21.100     6.822
    18   6 C        3.756    -0.016    20.921     6.522
    19   6 C        3.807    -0.071    21.843     6.653
    20   6 C        2.969    -0.001    28.038     8.685
    21   6 C        2.922    -0.049    29.214     8.864
    22   6 C        2.914    -0.067    29.680     8.934
    23   6 C        2.865     0.134    25.078     8.209
    24   8 O        1.706    -0.222    17.677     5.677
    25   6 C        3.645     0.025    20.491     6.506
    26   6 C        2.863     0.133    25.089     8.210
    27   8 O        1.706    -0.225    17.725     5.684
    28   6 C        3.645     0.027    20.452     6.500
    29   6 C        2.919    -0.080    29.990     8.980
    30   6 C        3.699    -0.069    21.994     6.707
    31   6 C        3.853    -0.008    20.677     6.467
    32   6 C        3.756    -0.119    22.841     6.814
    33   6 C        3.755    -0.119    22.833     6.813
    34   1 H        0.926     0.058     2.220     2.330
    35   1 H        0.000    -0.138    17.754     7.705
    36   1 H        0.926     0.105     1.739     2.062
    37   1 H        0.926     0.072     2.067     2.248
    38   1 H        0.924     0.058     2.227     2.333
    39   1 H        0.925     0.084     1.940     2.178
    40   1 H        0.924     0.050     2.316     2.380
    41   1 H        0.926     0.057     2.230     2.335
    42   1 H        0.926     0.046     2.372     2.408
    43   1 H        0.925     0.060     2.196     2.317
    44   1 H        0.924     0.056     2.251     2.346
    45   1 H        0.925     0.063     2.169     2.303
    46   1 H        0.923     0.080     1.975     2.198
    47   1 H        0.922     0.005     2.971     2.695
    48   1 H        0.926     0.069     2.092     2.262
    49   1 H        0.924     0.067     2.123     2.279
    50   1 H        0.924     0.068     2.111     2.272
    51   1 H        0.924     0.056     2.251     2.346
    52   1 H        0.924     0.055     2.256     2.349
    53   1 H        0.926     0.045     2.380     2.413
    54   1 H        0.926     0.059     2.214     2.327
    55   1 H        0.924     0.054     2.266     2.354
    56   1 H        0.924     0.056     2.245     2.343
    57   1 H        0.925     0.083     1.953     2.185
    58   1 H        0.925     0.082     1.959     2.189
    59   1 H        0.924     0.048     2.342     2.393
    60   1 H        0.924     0.052     2.290     2.366
    61   1 H        0.926     0.047     2.363     2.404
    62   1 H        0.924     0.076     2.023     2.224
    63   1 H        0.924     0.076     2.025     2.225
    64   1 H        0.925     0.080     1.980     2.201
    65   1 H        0.924     0.037     2.484     2.465
    66   1 H        0.925     0.070     2.090     2.261
    67   1 H        0.925     0.033     2.543     2.494
    68   1 H        0.925     0.053     2.285     2.364
    69   1 H        0.925     0.061     2.189     2.313
    70   1 H        0.925     0.035     2.513     2.479
    71   1 H        0.925     0.056     2.249     2.345
    72   1 H        0.860     0.157     1.354     1.823

Wiberg/Mayer (AO) data.
largest (>0.10) Wiberg bond orders for each atom

     #   Z sym  total        # sym  WBO       # sym  WBO       # sym  WBO
 ---------------------------------------------------------------------------
     1   7 N    3.039 --     2 C    1.957    72 H    0.942
     2   6 C    3.928 --     1 N    1.957     3 C    0.994    47 H    0.902
     3   6 C    3.977 --     2 C    0.994     4 C    0.971    14 C    0.958
                            31 C    0.942
     4   6 C    3.968 --     5 C    1.402    13 C    1.392     3 C    0.971
     5   6 C    3.908 --     4 C    1.402     6 C    1.358    34 H    0.956
     6   6 C    3.891 --     5 C    1.358     9 C    1.224     7 O    1.058
     7   8 O    2.430 --     8 C    1.272     6 C    1.058
     8   6 C    3.337 --     7 O    1.272    37 H    0.964    36 H    0.962
     9   6 C    3.889 --    12 C    1.385     6 C    1.224    10 O    1.112
    10   8 O    2.269 --     9 C    1.112    11 C    0.973
    11   6 C    3.929 --    39 H    0.977    40 H    0.975    38 H    0.974
                            10 O    0.973
    12   6 C    3.961 --    13 C    1.410     9 C    1.385    41 H    0.963
    13   6 C    3.915 --    12 C    1.410     4 C    1.392    42 H    0.962
    14   6 C    3.973 --    15 C    0.982    44 H    0.972    43 H    0.969
                             3 C    0.958
    15   6 C    3.987 --    16 C    1.059    14 C    0.982    45 H    0.962
                            46 H    0.928
    16   6 C    3.579 --    17 N    1.394    15 C    1.059    48 H    0.957
    17   7 N    3.470 --    16 C    1.394    30 C    0.999    18 C    0.988
    18   6 C    3.955 --    17 N    0.988    50 H    0.968    19 C    0.967
                            49 H    0.964
    19   6 C    3.976 --    20 C    1.007    52 H    0.972    51 H    0.972
                            18 C    0.967
    20   6 C    3.944 --    21 C    1.410    29 C    1.380    19 C    1.007
    21   6 C    3.950 --    22 C    1.417    20 C    1.410    53 H    0.968
    22   6 C    3.959 --    21 C    1.417    23 C    1.383    54 H    0.963
    23   6 C    3.895 --    22 C    1.383    26 C    1.219    24 O    1.111
    24   8 O    2.256 --    23 C    1.111    25 C    0.976
    25   6 C    3.928 --    57 H    0.977    24 O    0.976    55 H    0.973
                            56 H    0.973
    26   6 C    3.899 --    29 C    1.395    23 C    1.219    27 O    1.104
    27   8 O    2.255 --    26 C    1.104    28 C    0.979
    28   6 C    3.932 --    27 O    0.979    58 H    0.977    59 H    0.973
                            60 H    0.973
    29   6 C    3.959 --    26 C    1.395    20 C    1.380    61 H    0.963
    30   6 C    3.959 --    17 N    0.999    64 H    0.978    62 H    0.967
                            63 H    0.963
    31   6 C    3.974 --    33 C    1.009    32 C    1.008    65 H    0.960
                             3 C    0.942
    32   6 C    3.980 --    31 C    1.008    67 H    0.982    68 H    0.981
                            66 H    0.974
    33   6 C    3.983 --    31 C    1.009    70 H    0.983    71 H    0.980
                            69 H    0.977
    34   1 H    0.996 --     5 C    0.956
    35   1 H    0.017
    36   1 H    0.988 --     8 C    0.962
    37   1 H    0.995 --     8 C    0.964
    38   1 H    0.994 --    11 C    0.974
    39   1 H    0.992 --    11 C    0.977
    40   1 H    0.995 --    11 C    0.975
    41   1 H    0.995 --    12 C    0.963
    42   1 H    0.997 --    13 C    0.962
    43   1 H    0.995 --    14 C    0.969
    44   1 H    0.996 --    14 C    0.972
    45   1 H    0.995 --    15 C    0.962
    46   1 H    0.969 --    15 C    0.928
    47   1 H    0.988 --     2 C    0.902
    48   1 H    0.995 --    16 C    0.957
    49   1 H    0.990 --    18 C    0.964
    50   1 H    0.994 --    18 C    0.968
    51   1 H    0.996 --    19 C    0.972
    52   1 H    0.996 --    19 C    0.972
    53   1 H    0.997 --    21 C    0.968
    54   1 H    0.995 --    22 C    0.963
    55   1 H    0.992 --    25 C    0.973
    56   1 H    0.992 --    25 C    0.973
    57   1 H    0.992 --    25 C    0.977
    58   1 H    0.993 --    28 C    0.977
    59   1 H    0.993 --    28 C    0.973
    60   1 H    0.993 --    28 C    0.973
    61   1 H    0.997 --    29 C    0.963
    62   1 H    0.985 --    30 C    0.967
    63   1 H    0.987 --    30 C    0.963
    64   1 H    0.993 --    30 C    0.978
    65   1 H    0.993 --    31 C    0.960
    66   1 H    0.991 --    32 C    0.974
    67   1 H    0.997 --    32 C    0.982
    68   1 H    0.994 --    32 C    0.981
    69   1 H    0.993 --    33 C    0.977
    70   1 H    0.997 --    33 C    0.983
    71   1 H    0.994 --    33 C    0.980
    72   1 H    0.971 --     1 N    0.942
 ---------------------------------------------------------------------------

molecular dipole:
                 x           y           z       tot (Debye)
 q only:        1.501      -0.634      -0.140
   full:        1.742      -0.725      -0.332       4.869

           -------------------------------------------------
          | TOTAL ENERGY              -99.267888804949 Eh   |
          | GRADIENT NORM               0.002969078389 Eh/α |
          | HOMO-LUMO GAP               0.437936165849 eV   |
           -------------------------------------------------

 * finished run on 2024/04/06 at 11:12:38.853
