   * xtb version 6.6.1 (8d0f1dd) compiled by 'conda@1efc2f54142f' on 2023-08-01
          program call               : xtb struc.xyz --opt loose --input .xc1 --gfn2

   ID    Z sym.   atoms
    1    6 C      1, 3, 5-7, 10, 11, 14
    2    7 N      2, 4, 9, 13
    3    8 O      8, 12
    4    1 H      15-25
constraining bond 11 19 to    5.1400000 Å, actual value:    3.2966745 Å

          :  Hamiltonian                  GFN2-xTB          :
 * total energy  :   -17.9799844 Eh     change       -0.6650680E-10 Eh
 * total energy  :   -32.1294316 Eh     change       -0.1414945E+02 Eh
 * total energy  :   -38.9869408 Eh     change       -0.6857509E+01 Eh
 * total energy  :   -41.5356296 Eh     change       -0.2548689E+01 Eh
 * total energy  :   -41.9101337 Eh     change       -0.3745041E+00 Eh
 * total energy  :   -41.9175162 Eh     change       -0.7382488E-02 Eh
 * total energy  :   -41.9288390 Eh     change       -0.1132287E-01 Eh
 * total energy  :   -41.9433398 Eh     change       -0.1450073E-01 Eh
 * total energy  :   -41.9533704 Eh     change       -0.1003058E-01 Eh
 * total energy  :   -41.9585856 Eh     change       -0.5215252E-02 Eh
 * total energy  :   -42.1139452 Eh     change       -0.6680697E-04 Eh
 * total energy  :   -42.1139918 Eh     change       -0.4665074E-04 Eh
 * total energy  :   -42.1140187 Eh     change       -0.2688730E-04 Eh
 * total energy  :   -42.1140491 Eh     change       -0.3043448E-04 Eh
 * total energy  :   -42.1140867 Eh     change       -0.3752548E-04 Eh
 * total energy  :   -42.1141292 Eh     change       -0.4249276E-04 Eh
 * total energy  :   -42.1141151 Eh     change        0.1401902E-04 Eh
 * total energy  :   -42.1141582 Eh     change       -0.4309510E-04 Eh
 * total energy  :   -42.1141856 Eh     change       -0.2734986E-04 Eh
   *** GEOMETRY OPTIMIZATION CONVERGED AFTER 75 ITERATIONS ***

 final structure:
================
25
 xtb: 6.6.1 (8d0f1dd)
C            2.79006392816624        1.24639526754983       -0.08072240356212
N            1.94620584767924        0.08599683436344        0.00650753173343
C            2.35553729569675       -1.16278795990764        0.18829550178355
N            1.28333750778000       -1.97239591061884        0.20234745408234
C            0.15979818814332       -1.20159098154028        0.02326376087646
C            0.57770431478194        0.10774114739589       -0.08934092161210
C           -0.11717344475281        1.42763822136436       -0.39860576140593
O            0.29200019407885        2.04143545083407       -1.38504443647074
N           -1.03007654207118        1.76362655588379        0.47212282900352
C           -1.67244074595961        3.02976497592025        0.41769472851898
C           -2.18518528597163       -1.07501130774426       -0.12713498364349
O           -3.32778698203951       -0.87487780130807       -0.21105413690175
N           -1.11162664784206       -1.78205780164388       -0.05708440928031
C           -1.20369548378296       -3.25539838276700       -0.10585646239017
H            2.70503285122259        1.84170693675909        0.82994500353338
H            3.82377997024936        0.94079069132362       -0.22029680846749
H            2.46282299752988        1.86208165362858       -0.92152361364285
H            3.37274269892039       -1.48077504552205        0.30145496252054
H           -0.98490398628283        3.86147049342510        0.64927710515430
H           -2.09100567484162        3.22150022970369       -0.57693573106656
H           -2.47524546970912        3.02605263023635        1.15476580053714
H           -0.87168484354247       -3.68598598381844        0.83949531486687
H           -0.61244669193245       -3.63757360063519       -0.93847571865208
H           -2.24315301004839       -3.53556424676842       -0.26379245074897
H            1.31783052864167       -2.97394352451114        0.32186946313432

          :  Hamiltonian                  GFN2-xTB          :
         :: total energy             -42.114185590146 Eh    ::
         :: gradient norm              0.001131716991 Eh/a0 ::
         :: HOMO-LUMO gap              1.228845244501 eV    ::
         :: SCC energy               -42.651283173700 Eh    ::
         :: -> dispersion             -0.021559370580 Eh    ::
         :: repulsion energy           0.536955012205 Eh    ::

    * Orbital Energies and Occupations

         #    Occupation            Energy/Eh            Energy/eV
      -------------------------------------------------------------
         1        2.0000           -0.9208233             -25.0569
       ...           ...                  ...                  ...
        25        2.0000           -0.6604742             -17.9724
        26        2.0000           -0.6548078             -17.8182
        27        2.0000           -0.6466068             -17.5951
        28        2.0000           -0.6392042             -17.3936
        29        1.9999           -0.6310987             -17.1731
        30        1.9999           -0.6287575             -17.1094
        31        1.9996           -0.6074784             -16.5303
        32        1.9990           -0.5912709             -16.0893
        33        1.9987           -0.5865512             -15.9609
        34        1.9967           -0.5721219             -15.5682
        35        1.9522           -0.5296263             -14.4119
        36        1.7446           -0.5013232             -13.6417
        37        1.6958           -0.4981044             -13.5541 (HOMO)
        38        0.4869           -0.4529452             -12.3253 (LUMO)
        39        0.0917           -0.4228390             -11.5060
        40        0.0339           -0.4066242             -11.0648
        41        0.0011           -0.3524051              -9.5894
        42        0.0001           -0.3108699              -8.4592
        43        0.0000           -0.2214791              -6.0268
        44                         -0.1928482              -5.2477
        45                         -0.1355829              -3.6894
        46                         -0.0890246              -2.4225
        47                         -0.0603165              -1.6413
        48                         -0.0402200              -1.0944
       ...                                ...                  ...
        67                          0.8054613              21.9177
      -------------------------------------------------------------
                  HL-Gap            0.0451592 Eh            1.2288 eV

     #   Z          covCN         q      C6AA      α(0)
     1   6 C        3.693    -0.090    22.400     6.772
     2   7 N        2.862     0.087    19.740     6.599
     3   6 C        3.031     0.048    26.899     8.507
     4   7 N        2.805    -0.058    22.354     7.022
     5   6 C        3.049     0.091    25.924     8.351
     6   6 C        3.084     0.003    27.862     8.653
     7   6 C        2.765     0.276    22.330     7.739
     8   8 O        0.858    -0.420    22.082     6.300
     9   7 N        1.829    -0.262    27.649     7.792
    10   6 C        3.702    -0.021    21.104     6.569
    11   6 C        1.815     0.272    24.945     8.070
    12   8 O        0.856    -0.124    16.879     5.508
    13   7 N        2.728     0.020    20.906     6.791
    14   6 C        3.704    -0.082    22.216     6.739
    15   1 H        0.924     0.109     1.709     2.045
    16   1 H        0.925     0.099     1.798     2.097
    17   1 H        0.924     0.140     1.460     1.890
    18   1 H        0.926     0.123     1.588     1.970
    19   1 H        0.923     0.081     1.967     2.193
    20   1 H        0.924     0.085     1.930     2.173
    21   1 H        0.925     0.082     1.962     2.190
    22   1 H        0.924     0.099     1.790     2.092
    23   1 H        0.924     0.101     1.779     2.086
    24   1 H        0.925     0.114     1.663     2.017
    25   1 H        0.860     0.227     0.980     1.550

Wiberg/Mayer (AO) data.
largest (>0.10) Wiberg bond orders for each atom

     #   Z sym  total        # sym  WBO       # sym  WBO       # sym  WBO
 ---------------------------------------------------------------------------
     1   6 C    3.916 --     2 N    0.987    16 H    0.974    15 H    0.956
                            17 H    0.947
     2   7 N    3.701 --     3 C    1.374     6 C    1.198     1 C    0.987
     3   6 C    3.859 --     2 N    1.374     4 N    1.295    18 H    0.952
     4   7 N    3.575 --     3 C    1.295     5 C    1.176    25 H    0.916
     5   6 C    3.885 --     6 C    1.464     4 N    1.176    13 N    1.043
     6   6 C    3.892 --     5 C    1.464     2 N    1.198     7 C    0.915
     7   6 C    3.929 --     8 O    1.537     9 N    1.415     6 C    0.915
     8   8 O    1.818 --     7 C    1.537     9 N    0.165
     9   7 N    2.706 --     7 C    1.415    10 C    1.060     8 O    0.165
    10   6 C    3.904 --     9 N    1.060    21 H    0.955    19 H    0.930
                            20 H    0.928
    11   6 C    3.477 --    12 O    2.013    13 N    1.377
    12   8 O    2.241 --    11 C    2.013    13 N    0.164
    13   7 N    3.579 --    11 C    1.377     5 C    1.043    14 C    0.916
                            12 O    0.164
    14   6 C    3.871 --    24 H    0.973    23 H    0.969    22 H    0.969
                            13 N    0.916
    15   1 H    0.986 --     1 C    0.956
    16   1 H    0.989 --     1 C    0.974
    17   1 H    0.979 --     1 C    0.947
    18   1 H    0.984 --     3 C    0.952
    19   1 H    0.949 --    10 C    0.930
    20   1 H    0.941 --    10 C    0.928
    21   1 H    0.965 --    10 C    0.955
    22   1 H    0.988 --    14 C    0.969
    23   1 H    0.987 --    14 C    0.969
    24   1 H    0.986 --    14 C    0.973
    25   1 H    0.948 --     4 N    0.916
 ---------------------------------------------------------------------------

molecular dipole:
                 x           y           z       tot (Debye)
 q only:        1.670      -3.215       0.854
   full:        1.857      -3.482       0.850      10.260

           -------------------------------------------------
          | TOTAL ENERGY              -42.114185590146 Eh   |
          | GRADIENT NORM               0.001131716991 Eh/α |
          | HOMO-LUMO GAP               1.228845244501 eV   |
           -------------------------------------------------

 * finished run on 2024/06/05 at 20:00:18.548
