   * xtb version 6.6.1 (8d0f1dd) compiled by 'conda@1efc2f54142f' on 2023-08-01
          program call               : xtb struc.xyz --opt loose --input .xc1 --gfn2

   ID    Z sym.   atoms
    1    6 C      1, 3, 5-7, 10, 11, 14
    2    7 N      2, 4, 9, 13
    3    8 O      8, 12
    4    1 H      15-25
constraining bond 11 12 to    3.7600000 Å, actual value:    1.1960413 Å

          :  Hamiltonian                  GFN2-xTB          :
 * total energy  :   -30.5099774 Eh     change       -0.6650680E-10 Eh
 * total energy  :   -34.6688761 Eh     change       -0.4158899E+01 Eh
 * total energy  :   -38.1765846 Eh     change       -0.3507708E+01 Eh
 * total energy  :   -40.4284046 Eh     change       -0.2251820E+01 Eh
 * total energy  :   -41.4445321 Eh     change       -0.1016127E+01 Eh
 * total energy  :   -41.6568650 Eh     change       -0.2123329E+00 Eh
 * total energy  :   -41.6701372 Eh     change       -0.1327222E-01 Eh
 * total energy  :   -41.6881445 Eh     change       -0.1800732E-01 Eh
 * total energy  :   -41.7186271 Eh     change       -0.3048258E-01 Eh
 * total energy  :   -41.7547364 Eh     change       -0.3610927E-01 Eh
 * total energy  :   -42.1649659 Eh     change       -0.1101166E-02 Eh
 * total energy  :   -42.1663427 Eh     change       -0.1376817E-02 Eh
 * total energy  :   -42.1673203 Eh     change       -0.9775500E-03 Eh
 * total energy  :   -42.1680849 Eh     change       -0.7645799E-03 Eh
 * total energy  :   -42.1685505 Eh     change       -0.4655810E-03 Eh
 * total energy  :   -42.1689132 Eh     change       -0.3627285E-03 Eh
 * total energy  :   -42.1690711 Eh     change       -0.1579675E-03 Eh
 * total energy  :   -42.1691390 Eh     change       -0.6787854E-04 Eh
 * total energy  :   -42.1691822 Eh     change       -0.4317867E-04 Eh
   *** GEOMETRY OPTIMIZATION CONVERGED AFTER 100 ITERATIONS ***

 final structure:
================
25
 xtb: 6.6.1 (8d0f1dd)
C            3.23051176769066        0.96259717890606        0.37629365745865
N            2.16406456104549       -0.00077231251029        0.31978326344753
C            2.26819350847122       -1.31854881284253        0.46677302368951
N            1.05718863875705       -1.89382556097498        0.32251214816321
C            0.15054552115902       -0.90788982306381        0.07286982423874
C            0.84453471728875        0.29267706601389        0.06949145059546
C            0.17318325863387        1.55027184628764       -0.16135390948417
O            0.66612801866412        2.65217695901770       -0.17093641146205
N           -1.20720427883209        1.33136581604594       -0.39700313686758
C           -1.97089656569604        2.54234200368654       -0.64820073275606
C           -1.87548183738070        0.19132943495057       -0.41461959960300
O           -1.19529696744533       -3.37800998627778        0.49469476272708
N           -1.18597155442285       -0.98577652972665       -0.13564978432432
C           -1.80165068542629       -2.34534766706204       -0.26306335043917
H            3.89762534846911        0.73820741006596        1.20650664432540
H            3.80386997899765        0.94658213350702       -0.55220992420256
H            2.80180316320288        1.95651682176096        0.50017780554225
H            3.17629354258239       -1.84863012110050        0.67343745879143
H           -1.42675102150156        3.17246759874461       -1.35160125708302
H           -2.94410272496034        2.27010363581798       -1.04576644837368
H           -2.09444227478652        3.10043390876734        0.28161678041962
H           -1.69432232955412       -2.64416283119757       -1.31104286961510
H           -2.86254891845372       -2.22096244338297       -0.03759040413047
H           -1.62497863004729       -3.46685043224591        1.35282773147302
H            0.81013727764042       -2.87805675158885        0.38322489537335

          :  Hamiltonian                  GFN2-xTB          :
         :: total energy             -42.169182207081 Eh    ::
         :: gradient norm              0.003450283594 Eh/a0 ::
         :: HOMO-LUMO gap              2.262214204680 eV    ::
         :: SCC energy               -42.667901925831 Eh    ::
         :: -> dispersion             -0.022367591952 Eh    ::
         :: repulsion energy           0.498244460872 Eh    ::

    * Orbital Energies and Occupations

         #    Occupation            Energy/Eh            Energy/eV
      -------------------------------------------------------------
         1        2.0000           -0.9034913             -24.5853
       ...           ...                  ...                  ...
        25        2.0000           -0.6634651             -18.0538
        26        2.0000           -0.6537058             -17.7882
        27        2.0000           -0.6441967             -17.5295
        28        1.9999           -0.6387197             -17.3804
        29        1.9999           -0.6308753             -17.1670
        30        1.9997           -0.6126040             -16.6698
        31        1.9997           -0.6111643             -16.6306
        32        1.9994           -0.6008700             -16.3505
        33        1.9991           -0.5933788             -16.1467
        34        1.9977           -0.5783018             -15.7364
        35        1.9955           -0.5676363             -15.4462
        36        1.9881           -0.5521027             -15.0235
        37        1.8603           -0.5120671             -13.9341 (HOMO)
        38        0.1306           -0.4289322             -11.6718 (LUMO)
        39        0.0211           -0.3991365             -10.8611
        40        0.0089           -0.3853525             -10.4860
        41        0.0000           -0.2829502              -7.6995
        42        0.0000           -0.2132732              -5.8035
        43                         -0.1877714              -5.1095
        44                         -0.1502841              -4.0894
        45                         -0.1264338              -3.4404
        46                         -0.1044103              -2.8411
        47                         -0.0697293              -1.8974
        48                         -0.0253250              -0.6891
       ...                                ...                  ...
        67                          0.5452818              14.8379
      -------------------------------------------------------------
                  HL-Gap            0.0831348 Eh            2.2622 eV

     #   Z          covCN         q      C6AA      α(0)
     1   6 C        3.691    -0.088    22.382     6.770
     2   7 N        2.835     0.071    20.008     6.643
     3   6 C        3.061     0.055    26.719     8.477
     4   7 N        2.794    -0.066    22.511     7.047
     5   6 C        3.055     0.117    25.375     8.261
     6   6 C        3.119    -0.014    28.198     8.697
     7   6 C        2.770     0.260    22.616     7.789
     8   8 O        0.857    -0.368    21.043     6.150
     9   7 N        2.747     0.011    21.064     6.816
    10   6 C        3.721    -0.070    21.958     6.692
    11   6 C        1.883    -0.086    33.492     9.347
    12   8 O        1.654    -0.419    21.229     6.220
    13   7 N        2.736    -0.033    21.881     6.947
    14   6 C        3.612     0.115    19.170     6.321
    15   1 H        0.925     0.101     1.779     2.086
    16   1 H        0.924     0.107     1.726     2.055
    17   1 H        0.925     0.131     1.530     1.934
    18   1 H        0.926     0.120     1.611     1.985
    19   1 H        0.925     0.102     1.770     2.081
    20   1 H        0.925     0.101     1.773     2.082
    21   1 H        0.924     0.095     1.828     2.114
    22   1 H        0.924     0.094     1.838     2.120
    23   1 H        0.924     0.093     1.849     2.127
    24   1 H        0.805     0.322     0.658     1.274
    25   1 H        0.860     0.251     0.881     1.470

Wiberg/Mayer (AO) data.
largest (>0.10) Wiberg bond orders for each atom

     #   Z sym  total        # sym  WBO       # sym  WBO       # sym  WBO
 ---------------------------------------------------------------------------
     1   6 C    3.920 --     2 N    0.987    15 H    0.967    17 H    0.963
                            16 H    0.955
     2   7 N    3.667 --     3 C    1.379     6 C    1.156     1 C    0.987
     3   6 C    3.846 --     2 N    1.379     4 N    1.288    18 H    0.953
     4   7 N    3.588 --     3 C    1.288     5 C    1.195    25 H    0.893
     5   6 C    3.943 --     6 C    1.356     4 N    1.195    13 N    1.194
     6   6 C    3.920 --     5 C    1.356     2 N    1.156     7 C    1.088
     7   6 C    3.927 --     8 O    1.700     6 C    1.088     9 N    1.035
     8   8 O    2.024 --     7 C    1.700     9 N    0.122
     9   7 N    3.659 --    11 C    1.434     7 C    1.035    10 C    0.977
                             8 O    0.122
    10   6 C    3.928 --     9 N    0.977    20 H    0.975    19 H    0.966
                            21 H    0.962
    11   6 C    2.847 --     9 N    1.434    13 N    1.206
    12   8 O    2.013 --    14 C    1.030    24 H    0.884
    13   7 N    3.580 --    11 C    1.206     5 C    1.194    14 C    0.935
    14   6 C    3.923 --    12 O    1.030    23 H    0.965    22 H    0.955
                            13 N    0.935
    15   1 H    0.988 --     1 C    0.967
    16   1 H    0.985 --     1 C    0.955
    17   1 H    0.982 --     1 C    0.963
    18   1 H    0.984 --     3 C    0.953
    19   1 H    0.988 --    10 C    0.966
    20   1 H    0.989 --    10 C    0.975
    21   1 H    0.988 --    10 C    0.962
    22   1 H    0.988 --    14 C    0.955
    23   1 H    0.990 --    14 C    0.965
    24   1 H    0.896 --    12 O    0.884
    25   1 H    0.937 --     4 N    0.893
 ---------------------------------------------------------------------------

molecular dipole:
                 x           y           z       tot (Debye)
 q only:        0.951      -1.799       0.497
   full:        1.307      -2.214       0.755       6.811

           -------------------------------------------------
          | TOTAL ENERGY              -42.169182207081 Eh   |
          | GRADIENT NORM               0.003450283594 Eh/α |
          | HOMO-LUMO GAP               2.262214204680 eV   |
           -------------------------------------------------

 * finished run on 2024/06/05 at 19:58:06.300
