   * xtb version 6.6.1 (8d0f1dd) compiled by 'conda@1efc2f54142f' on 2023-08-01
          program call               : xtb struc.xyz --opt loose --input .xc1 --gfn2

   ID    Z sym.   atoms
    1    7 N      1, 17
    2    6 C      2-6, 8, 9, 11-16, 18-23, 25, 26, 28-33
    3    8 O      7, 10, 24, 27
    4    1 H      34-72
constraining bond 27 59 to    3.9000000 Å, actual value:    2.0766952 Å

          :  Hamiltonian                  GFN2-xTB          :
 * total energy  :   -98.8105414 Eh     change       -0.4035485E-08 Eh
 * total energy  :   -99.0150569 Eh     change       -0.2045155E+00 Eh
 * total energy  :   -99.1258440 Eh     change       -0.1107871E+00 Eh
 * total energy  :   -99.1728633 Eh     change       -0.4701936E-01 Eh
 * total energy  :   -99.1955594 Eh     change       -0.2269610E-01 Eh
 * total energy  :   -99.2065736 Eh     change       -0.1101412E-01 Eh
 * total energy  :   -99.2143104 Eh     change       -0.7736859E-02 Eh
 * total energy  :   -99.2249810 Eh     change       -0.1067061E-01 Eh
 * total energy  :   -99.2400444 Eh     change       -0.1506342E-01 Eh
 * total energy  :   -99.2509241 Eh     change       -0.1087964E-01 Eh
 * total energy  :   -99.2867883 Eh     change       -0.1663905E-03 Eh
 * total energy  :   -99.2869397 Eh     change       -0.1513942E-03 Eh
 * total energy  :   -99.2870794 Eh     change       -0.1397707E-03 Eh
 * total energy  :   -99.2872041 Eh     change       -0.1247068E-03 Eh
 * total energy  :   -99.2873658 Eh     change       -0.1616376E-03 Eh
 * total energy  :   -99.2875159 Eh     change       -0.1500775E-03 Eh
 * total energy  :   -99.2876291 Eh     change       -0.1132401E-03 Eh
 * total energy  :   -99.2877386 Eh     change       -0.1094952E-03 Eh
 * total energy  :   -99.2877670 Eh     change       -0.2839319E-04 Eh
   *** GEOMETRY OPTIMIZATION CONVERGED AFTER 68 ITERATIONS ***

 final structure:
================
72
 xtb: 6.6.1 (8d0f1dd)
N           -1.81337941518111        2.78236697346755        2.14651245984417
C           -1.83675682248145        1.97593499970827        1.19393597585080
C           -3.02445211403906        1.75984180244808        0.29432578236376
C           -3.46758508311114        0.30697736072946        0.39302691540339
C           -4.38492331130412       -0.20918325976044       -0.52374448237273
C           -4.84353383446914       -1.51404731141418       -0.43246630244656
O           -5.73023104087023       -2.08906136576906       -1.26710359565401
C           -6.30180191143048       -1.33043611123197       -2.30643477580908
C           -4.36756717744287       -2.35344849663809        0.61434932570302
O           -4.86710168627013       -3.60048180197185        0.62669824803714
C           -4.48788282407734       -4.48644386743437        1.65560192900265
C           -3.45673110667064       -1.83192777444628        1.52200418134059
C           -3.01819182618261       -0.52089731863384        1.41358963079781
C           -2.54305405515860        2.07968778887866       -1.14455259746407
C           -1.53240454465432        1.07100151918500       -1.70892005407532
C           -0.15913036035972        1.27716639695311       -1.19646376060215
N            0.72056771688098        0.34514657629962       -0.95557086827623
C            2.07392042067563        0.67538592375963       -0.58048865159983
C            3.05888226196432        0.44752588816333       -1.74506726234435
C            4.45774283193496        0.33781269045545       -1.21077507797403
C            5.42171627074412        1.31898328226503       -1.40220978737681
C            6.69508412465079        1.18324264268033       -0.87169920643800
C            7.03401644816151        0.07646165932235       -0.09792912929690
O            8.22095434586927       -0.14270813804260        0.48762747046869
C            9.26225556698154        0.79633476716162        0.31841524414670
C            6.03551794778435       -0.90753721574970        0.12580314754146
O            6.38549215188335       -1.95433371707941        0.92773859743715
C            5.52581846316252       -2.73907039388359        1.48783136301358
C            4.78710044803048       -0.78365973563091       -0.46433116093695
C            0.41417449776416       -1.06194155767839       -1.01305522754715
C           -4.24449604547500        2.66224561906990        0.64967690124751
C           -4.78287757003353        2.35183465810862        2.04413572276711
C           -3.94770696278599        4.15525689347886        0.53578642246629
H           -4.76065487209958        0.42160067186720       -1.31233901588723
H           -6.85514007727457       -0.46999357573901       -1.91828771091904
H           -6.99199570350211       -2.00281229972029       -2.81229162912550
H           -5.54386952275051       -0.98927981917335       -3.01895919951696
H           -4.77658588429912       -4.10329907636312        2.63875528802806
H           -5.02528350053978       -5.41157412847585        1.45638984692419
H           -3.41141753306239       -4.68109268222872        1.64046361282813
H           -3.08603894722557       -2.43907275720873        2.33132656539224
H           -2.33232331301381       -0.14648072580188        2.15705562254481
H           -3.41143629044894        2.10514685643740       -1.80177346355382
H           -2.09761623529502        3.07478598691231       -1.15304151495820
H           -1.88489982571140        0.05405307861749       -1.53640303672560
H           -1.49006143928126        1.21875416456248       -2.79564912818082
H           -0.96866518637272        1.36460016787980        0.89235919611100
H            0.17765494716146        2.30182899686530       -1.10485720754424
H            2.35658627160954        0.00994835136983        0.24379558428863
H            2.12931195008553        1.71131661674086       -0.24299775634451
H            2.97890046179632        1.25909239463120       -2.46984163423715
H            2.80102549919831       -0.49088957990968       -2.23827344537388
H            5.18783995033433        2.19878617018085       -1.98231402644822
H            7.42326560743440        1.95603027749393       -1.05542019580495
H            8.99092537809912        1.77093023070081        0.73322303164935
H            9.53266159461759        0.90572725015368       -0.73519255477243
H           10.10978417176243        0.39237724259901        0.86878665581110
H            5.95548680217356       -3.53289527587567        2.07563309301500
H            2.49455395038811       -1.76391063123432        0.91416093667514
H            4.45395159253516       -2.60006997906982        1.42171479866499
H            4.04675817800221       -1.55235372467805       -0.31864007669341
H            0.48237086263297       -1.44047874604136       -2.03346457882424
H           -0.58650660919634       -1.25727907139009       -0.63040506808388
H            1.12984904666172       -1.59840129971827       -0.38298964873638
H           -5.02944437575814        2.41611377533883       -0.07516738649125
H           -4.04482200153217        2.61443891020665        2.79567794508947
H           -5.03213005233672        1.29835075630976        2.14557163944717
H           -5.68210262319578        2.93478451737153        2.22528539950676
H           -3.12898206040701        4.42718021485826        1.19483467649200
H           -3.70484882163921        4.44755060910106       -0.48241121011234
H           -4.82781501079100        4.71637711871146        0.83884087024376
H           -0.95520658623728        2.86621915949792        2.68186219105976

          :  Hamiltonian                  GFN2-xTB          :
         :: total energy             -99.287766992935 Eh    ::
         :: gradient norm              0.001744449583 Eh/a0 ::
         :: HOMO-LUMO gap              1.303211147220 eV    ::
         :: SCC energy              -100.669525715980 Eh    ::
         :: -> dispersion             -0.096840141057 Eh    ::
         :: repulsion energy           1.380502310801 Eh    ::

    * Orbital Energies and Occupations

         #    Occupation            Energy/Eh            Energy/eV
      -------------------------------------------------------------
         1        2.0000           -0.8557062             -23.2850
       ...           ...                  ...                  ...
        78        1.9973           -0.5332745             -14.5111
        79        1.9972           -0.5326996             -14.4955
        80        1.9966           -0.5296487             -14.4125
        81        1.9955           -0.5253045             -14.2943
        82        1.9936           -0.5195839             -14.1386
        83        1.9927           -0.5174722             -14.0811
        84        1.9912           -0.5146034             -14.0031
        85        1.9905           -0.5133649             -13.9694
        86        1.9697           -0.4947727             -13.4634
        87        1.9365           -0.4827881             -13.1373
        88        1.9040           -0.4759718             -12.9519
        89        1.7950           -0.4630369             -12.5999
        90        1.7361           -0.4585086             -12.4767 (HOMO)
        91        0.4844           -0.4106165             -11.1734 (LUMO)
        92        0.2148           -0.3951465             -10.7525
        93        0.0093           -0.3437248              -9.3532
        94        0.0026           -0.3234750              -8.8022
        95        0.0021           -0.3204265              -8.7192
        96        0.0021           -0.3199358              -8.7059
        97        0.0018           -0.3175655              -8.6414
        98        0.0000           -0.1998559              -5.4384
        99        0.0000           -0.1950744              -5.3082
       100                         -0.1258696              -3.4251
       101                         -0.0728541              -1.9825
       ...                                ...                  ...
       171                          0.5669188              15.4266
      -------------------------------------------------------------
                  HL-Gap            0.0478921 Eh            1.3032 eV

     #   Z          covCN         q      C6AA      α(0)
     1   7 N        1.774    -0.261    27.610     7.781
     2   6 C        2.827     0.102    25.730     8.312
     3   6 C        3.907     0.007    20.401     6.420
     4   6 C        2.974     0.003    27.956     8.673
     5   6 C        2.919    -0.079    29.971     8.978
     6   6 C        2.861     0.132    25.102     8.212
     7   8 O        1.706    -0.222    17.680     5.677
     8   6 C        3.644     0.026    20.479     6.505
     9   6 C        2.864     0.134    25.070     8.207
    10   8 O        1.706    -0.217    17.606     5.665
    11   6 C        3.645     0.023    20.517     6.510
    12   6 C        2.913    -0.068    29.686     8.934
    13   6 C        2.921    -0.046    29.144     8.853
    14   6 C        3.812    -0.066    21.763     6.640
    15   6 C        3.803    -0.070    21.835     6.653
    16   6 C        2.848     0.022    27.498     8.594
    17   7 N        2.729     0.059    20.219     6.678
    18   6 C        3.762    -0.029    21.132     6.553
    19   6 C        3.809    -0.066    21.766     6.641
    20   6 C        2.969     0.013    27.721     8.636
    21   6 C        2.921    -0.036    28.904     8.816
    22   6 C        2.915    -0.065    29.617     8.924
    23   6 C        2.861     0.144    24.867     8.174
    24   8 O        1.706    -0.221    17.667     5.675
    25   6 C        3.645     0.021    20.553     6.516
    26   6 C        2.879     0.106    25.654     8.303
    27   8 O        1.709    -0.074    15.465     5.310
    28   6 C        2.742     0.057    26.698     8.460
    29   6 C        2.922    -0.055    29.376     8.888
    30   6 C        3.704    -0.081    22.204     6.737
    31   6 C        3.853    -0.007    20.675     6.467
    32   6 C        3.756    -0.118    22.823     6.812
    33   6 C        3.755    -0.120    22.864     6.818
    34   1 H        0.926     0.053     2.281     2.362
    35   1 H        0.924     0.056     2.244     2.343
    36   1 H        0.925     0.084     1.936     2.176
    37   1 H        0.924     0.050     2.318     2.381
    38   1 H        0.924     0.059     2.205     2.322
    39   1 H        0.925     0.085     1.932     2.174
    40   1 H        0.924     0.058     2.226     2.333
    41   1 H        0.926     0.063     2.168     2.303
    42   1 H        0.926     0.050     2.326     2.385
    43   1 H        0.925     0.062     2.172     2.304
    44   1 H        0.924     0.057     2.230     2.336
    45   1 H        0.925     0.073     2.053     2.240
    46   1 H        0.924     0.088     1.902     2.157
    47   1 H        0.923     0.013     2.835     2.633
    48   1 H        0.925     0.078     1.999     2.211
    49   1 H        0.924     0.133     1.509     1.921
    50   1 H        0.924     0.059     2.214     2.327
    51   1 H        0.924     0.053     2.281     2.362
    52   1 H        0.924     0.069     2.095     2.264
    53   1 H        0.926     0.060     2.196     2.317
    54   1 H        0.926     0.068     2.109     2.271
    55   1 H        0.924     0.060     2.202     2.320
    56   1 H        0.924     0.061     2.191     2.315
    57   1 H        0.925     0.086     1.915     2.164
    58   1 H        0.926     0.111     1.687     2.031
    59   1 H        0.000    -0.684  1419.658    68.895
    60   1 H        0.925     0.126     1.568     1.958
    61   1 H        0.926     0.109     1.708     2.044
    62   1 H        0.924     0.077     2.010     2.217
    63   1 H        0.925     0.073     2.054     2.241
    64   1 H        0.924     0.141     1.454     1.886
    65   1 H        0.924     0.040     2.454     2.450
    66   1 H        0.925     0.069     2.095     2.264
    67   1 H        0.925     0.037     2.489     2.467
    68   1 H        0.925     0.054     2.274     2.358
    69   1 H        0.925     0.065     2.137     2.286
    70   1 H        0.925     0.036     2.498     2.471
    71   1 H        0.925     0.057     2.230     2.335
    72   1 H        0.860     0.163     1.315     1.796

Wiberg/Mayer (AO) data.
largest (>0.10) Wiberg bond orders for each atom

     #   Z sym  total        # sym  WBO       # sym  WBO       # sym  WBO
 ---------------------------------------------------------------------------
     1   7 N    3.031 --     2 C    1.960    72 H    0.939
     2   6 C    3.937 --     1 N    1.960     3 C    0.992    47 H    0.908
     3   6 C    3.971 --     2 C    0.992     4 C    0.972    14 C    0.956
                            31 C    0.942
     4   6 C    3.931 --    13 C    1.400     5 C    1.374     3 C    0.972
     5   6 C    3.954 --     6 C    1.393     4 C    1.374    34 H    0.957
     6   6 C    3.888 --     5 C    1.393     9 C    1.211     7 O    1.108
     7   8 O    2.251 --     6 C    1.108     8 C    0.977
     8   6 C    3.929 --     7 O    0.977    36 H    0.976    37 H    0.972
                            35 H    0.972
     9   6 C    3.884 --    12 C    1.379     6 C    1.211    10 O    1.117
    10   8 O    2.253 --     9 C    1.117    11 C    0.974
    11   6 C    3.924 --    39 H    0.976    10 O    0.974    38 H    0.971
                            40 H    0.971
    12   6 C    3.952 --    13 C    1.417     9 C    1.379    41 H    0.962
    13   6 C    3.939 --    12 C    1.417     4 C    1.400    42 H    0.961
    14   6 C    3.979 --    15 C    0.990    44 H    0.970    43 H    0.967
                             3 C    0.956
    15   6 C    3.986 --    16 C    1.058    14 C    0.990    45 H    0.953
                            46 H    0.922
    16   6 C    3.741 --    17 N    1.528    15 C    1.058    48 H    0.953
    17   7 N    3.603 --    16 C    1.528    30 C    0.993    18 C    0.985
    18   6 C    3.924 --    17 N    0.985    50 H    0.970    19 C    0.964
                            49 H    0.919
    19   6 C    3.979 --    20 C    1.011    51 H    0.975    18 C    0.964
                            52 H    0.962
    20   6 C    3.956 --    29 C    1.403    21 C    1.391    19 C    1.011
    21   6 C    3.931 --    22 C    1.432    20 C    1.391    53 H    0.966
    22   6 C    3.956 --    21 C    1.432    23 C    1.364    54 H    0.962
    23   6 C    3.892 --    22 C    1.364    26 C    1.231    24 O    1.125
    24   8 O    2.275 --    23 C    1.125    25 C    0.969
    25   6 C    3.923 --    57 H    0.976    56 H    0.973    55 H    0.973
                            24 O    0.969
    26   6 C    3.884 --    29 C    1.375    23 C    1.231    27 O    1.030
    27   8 O    2.465 --    28 C    1.355    26 C    1.030
    28   6 C    3.415 --    27 O    1.355    58 H    0.961    60 H    0.944
    29   6 C    3.906 --    20 C    1.403    26 C    1.375    61 H    0.934
    30   6 C    3.919 --    17 N    0.993    63 H    0.965    62 H    0.958
                            64 H    0.933
    31   6 C    3.968 --    32 C    1.008    33 C    1.008    65 H    0.958
                             3 C    0.942
    32   6 C    3.974 --    31 C    1.008    67 H    0.980    68 H    0.980
                            66 H    0.972
    33   6 C    3.976 --    31 C    1.008    70 H    0.982    71 H    0.978
                            69 H    0.973
    34   1 H    0.996 --     5 C    0.957
    35   1 H    0.991 --     8 C    0.972
    36   1 H    0.992 --     8 C    0.976
    37   1 H    0.992 --     8 C    0.972
    38   1 H    0.989 --    11 C    0.971
    39   1 H    0.992 --    11 C    0.976
    40   1 H    0.990 --    11 C    0.971
    41   1 H    0.994 --    12 C    0.962
    42   1 H    0.996 --    13 C    0.961
    43   1 H    0.995 --    14 C    0.967
    44   1 H    0.996 --    14 C    0.970
    45   1 H    0.993 --    15 C    0.953
    46   1 H    0.977 --    15 C    0.922
    47   1 H    0.980 --     2 C    0.908
    48   1 H    0.994 --    16 C    0.953
    49   1 H    0.978 --    18 C    0.919
    50   1 H    0.995 --    18 C    0.970
    51   1 H    0.995 --    19 C    0.975
    52   1 H    0.993 --    19 C    0.962
    53   1 H    0.995 --    21 C    0.966
    54   1 H    0.993 --    22 C    0.962
    55   1 H    0.992 --    25 C    0.973
    56   1 H    0.992 --    25 C    0.973
    57   1 H    0.992 --    25 C    0.976
    58   1 H    0.986 --    28 C    0.961
    59   1 H    0.132
    60   1 H    0.984 --    28 C    0.944
    61   1 H    0.986 --    29 C    0.934
    62   1 H    0.986 --    30 C    0.958
    63   1 H    0.991 --    30 C    0.965
    64   1 H    0.979 --    30 C    0.933
    65   1 H    0.989 --    31 C    0.958
    66   1 H    0.989 --    32 C    0.972
    67   1 H    0.995 --    32 C    0.980
    68   1 H    0.993 --    32 C    0.980
    69   1 H    0.991 --    33 C    0.973
    70   1 H    0.996 --    33 C    0.982
    71   1 H    0.992 --    33 C    0.978
    72   1 H    0.966 --     1 N    0.939
 ---------------------------------------------------------------------------

molecular dipole:
                 x           y           z       tot (Debye)
 q only:        1.097       1.154      -1.646
   full:        1.408       1.115      -1.750       6.374

           -------------------------------------------------
          | TOTAL ENERGY              -99.287766992935 Eh   |
          | GRADIENT NORM               0.001744449583 Eh/α |
          | HOMO-LUMO GAP               1.303211147220 eV   |
           -------------------------------------------------

 * finished run on 2024/04/06 at 11:14:43.272
