   * xtb version 6.6.1 (8d0f1dd) compiled by 'conda@1efc2f54142f' on 2023-08-01
          program call               : xtb struc.xyz --opt loose --input .xc1 --gfn2

   ID    Z sym.   atoms
    1    7 N      1, 17
    2    6 C      2-6, 8, 9, 11-16, 18-23, 25, 26, 28-33
    3    8 O      7, 10, 24, 27
    4    1 H      34-72
constraining bond 20 52 to    4.1400000 Å, actual value:    2.1420235 Å

          :  Hamiltonian                  GFN2-xTB          :
 * total energy  :   -98.6913626 Eh     change       -0.4035485E-08 Eh
 * total energy  :   -98.9222415 Eh     change       -0.2308789E+00 Eh
 * total energy  :   -99.0607269 Eh     change       -0.1384854E+00 Eh
 * total energy  :   -99.1295539 Eh     change       -0.6882709E-01 Eh
 * total energy  :   -99.1600874 Eh     change       -0.3053346E-01 Eh
 * total energy  :   -99.1773678 Eh     change       -0.1728042E-01 Eh
 * total energy  :   -99.1947372 Eh     change       -0.1736934E-01 Eh
 * total energy  :   -99.2193411 Eh     change       -0.2460397E-01 Eh
 * total energy  :   -99.2404272 Eh     change       -0.2108605E-01 Eh
 * total energy  :   -99.2477679 Eh     change       -0.7340687E-02 Eh
 * total energy  :   -99.3889248 Eh     change       -0.1135881E-03 Eh
 * total energy  :   -99.3890249 Eh     change       -0.1000832E-03 Eh
 * total energy  :   -99.3891117 Eh     change       -0.8682398E-04 Eh
 * total energy  :   -99.3891873 Eh     change       -0.7556516E-04 Eh
 * total energy  :   -99.3892535 Eh     change       -0.6624096E-04 Eh
 * total energy  :   -99.3893301 Eh     change       -0.7661684E-04 Eh
 * total energy  :   -99.3893860 Eh     change       -0.5586598E-04 Eh
 * total energy  :   -99.3894387 Eh     change       -0.5269074E-04 Eh
 * total energy  :   -99.3894714 Eh     change       -0.3270454E-04 Eh
   *** GEOMETRY OPTIMIZATION CONVERGED AFTER 90 ITERATIONS ***

 final structure:
================
72
 xtb: 6.6.1 (8d0f1dd)
N           -1.60096854787279        2.27990305308295        2.27321323954562
C           -1.67747929232010        1.52464885894891        1.28094382853166
C           -2.85849491609067        1.48224764322233        0.35049398382220
C           -3.41363169291341        0.07019523033747        0.30137122150285
C           -4.30069902338573       -0.30126113261208       -0.70825445050797
C           -4.88765614978941       -1.55693206131521       -0.73123410093917
O           -5.76008098965104       -1.99112569032493       -1.65962845612573
C           -6.17544787402378       -1.11754757147464       -2.68293648843435
C           -4.57907215813612       -2.49417160004772        0.29542577784677
O           -5.20294839991895       -3.68098046203204        0.20251769157685
C           -4.98647547824773       -4.65442404788316        1.19860178178869
C           -3.69044186085745       -2.11836471255265        1.29323007621968
C           -3.12110527007867       -0.85450261471443        1.29654202896441
C           -2.30716747146661        1.91378400341747       -1.03418957287000
C           -1.39602673347523        0.89715731739877       -1.74065694870922
C            0.10882858737119        1.20389134167638       -1.64783056140628
N            0.72980842786703        0.61381408632709       -0.47350854626035
C            1.74815866151130        1.42697991519008        0.18939896879527
C            2.95387532702844        1.69681930261041       -0.65066268871769
C            4.19688169543339        1.09579860098300       -0.55337539232585
C            5.23764352289071        1.51934760010765       -1.42915892480318
C            6.49484390674927        0.97777856804336       -1.36969238501587
C            6.79866017697234       -0.02809632725252       -0.44684358484796
O            7.98250961085198       -0.62399416566573       -0.30113285886478
C            9.07402452064084       -0.22978961535967       -1.10263133809920
C            5.76850751598949       -0.48756051929684        0.43746590161631
O            6.15598863172405       -1.46891316316264        1.27650440162812
C            5.22674051115601       -1.99757654569462        2.19249053688936
C            4.51407620317212        0.06824065667670        0.38018098488785
C            1.10429214635710       -0.76987836350854       -0.64077304464100
C           -4.02525634868921        2.42533089468595        0.77157381145540
C           -4.58910592812972        2.04798128704655        2.13903030841079
C           -3.64347343924368        3.90286810538614        0.76667234285489
H           -4.54313977232880        0.40515081823760       -1.48428607080934
H           -6.66582707162064       -0.22823734675618       -2.27551208118053
H           -6.89123026315461       -1.68288566240360       -3.27667596665119
H           -5.33702096514861       -0.81590121559575       -3.31858583426580
H           -5.30598062876263       -4.29728102202270        2.18201975797819
H           -5.59534801539328       -5.50868437865526        0.90953599199782
H           -3.93547083255347       -4.95586807322613        1.24251232931043
H           -3.44470952752112       -2.80386554041018        2.08789823631418
H           -2.45824455134998       -0.58741516327359        2.10484351749621
H           -3.16052121894026        2.12953849769379       -1.67668919460886
H           -1.76622782668673        2.85123963815437       -0.90487974987339
H           -1.58775587236509       -0.10497646815065       -1.35540555645193
H           -1.65571693089721        0.88796471224334       -2.79994736855454
H           -0.86760988271061        0.85968277236538        0.95296681908636
H            0.25146617764407        2.28593079990388       -1.61118815226701
H            2.01707622684740        0.91455124928637        1.11622811593553
H            1.27639604153794        2.38139403258051        0.45128040469447
H            2.82018881107522        2.42965596542847       -1.43366306310644
H            0.59336720845018        0.83365555066395       -2.56255157626074
H            5.02383005575710        2.29435969806317       -2.14815411743110
H            7.25612019479013        1.33372213222480       -2.04579056243733
H            9.30384228949313        0.83068990166013       -0.97024487231524
H            8.88819773760681       -0.43582906742002       -2.16111638546509
H            9.91756164717562       -0.82698908603191       -0.76084140291658
H            5.76223657358174       -2.77111145724355        2.73887179283449
H            4.87885418492868       -1.23353748484421        2.89476819777426
H            4.36932985593160       -2.44498578410157        1.67968903022689
H            3.74614313607510       -0.28124103727418        1.04952374027764
H            1.97768199232552       -0.89505956361883       -1.29757414502415
H            0.26774111292963       -1.31708037497956       -1.07375050471691
H            1.33627754301174       -1.20505671487920        0.33127345210970
H           -4.81927837610669        2.27705029341272        0.02950811454711
H           -3.84183610537593        2.21836332021596        2.90859440357929
H           -4.89481892365770        1.00447143485853        2.16684283694748
H           -5.45720177192374        2.66406471583300        2.35922955927855
H           -2.80587760134383        4.07627694747717        1.43606944597611
H           -3.38814825986406        4.25396327159405       -0.22959351897405
H           -4.48791376178714        4.49002841014305        1.11865174556182
H           -0.74922490405591        2.26672292914117        2.82425993022910

          :  Hamiltonian                  GFN2-xTB          :
         :: total energy             -99.389471403093 Eh    ::
         :: gradient norm              0.003877759999 Eh/a0 ::
         :: HOMO-LUMO gap              1.064767012226 eV    ::
         :: SCC energy              -100.756946756580 Eh    ::
         :: -> dispersion             -0.075485006539 Eh    ::
         :: repulsion energy           1.366166367805 Eh    ::

    * Orbital Energies and Occupations

         #    Occupation            Energy/Eh            Energy/eV
      -------------------------------------------------------------
         1        2.0000           -0.8229575             -22.3938
       ...           ...                  ...                  ...
        78        1.9967           -0.5303445             -14.4314
        79        1.9966           -0.5300136             -14.4224
        80        1.9961           -0.5274643             -14.3530
        81        1.9943           -0.5216348             -14.1944
        82        1.9913           -0.5148343             -14.0094
        83        1.9905           -0.5134672             -13.9722
        84        1.9880           -0.5098167             -13.8728
        85        1.9866           -0.5080290             -13.8242
        86        1.9634           -0.4919019             -13.3853
        87        1.9255           -0.4803622             -13.0713
        88        1.9076           -0.4768001             -12.9744
        89        1.7710           -0.4612509             -12.5513
        90        1.7517           -0.4597969             -12.5117 (HOMO)
        91        0.7469           -0.4206674             -11.4469 (LUMO)
        92        0.0059           -0.3366877              -9.1617
        93        0.0019           -0.3184126              -8.6644
        94        0.0018           -0.3177230              -8.6457
        95        0.0015           -0.3152194              -8.5776
        96        0.0005           -0.2974599              -8.0943
        97        0.0000           -0.1928025              -5.2464
        98        0.0000           -0.1897959              -5.1646
        99                         -0.0982291              -2.6729
       100                         -0.0723423              -1.9685
       101                         -0.0673704              -1.8332
       ...                                ...                  ...
       171                          0.5792397              15.7619
      -------------------------------------------------------------
                  HL-Gap            0.0391295 Eh            1.0648 eV

     #   Z          covCN         q      C6AA      α(0)
     1   7 N        1.774    -0.261    27.608     7.781
     2   6 C        2.829     0.097    25.836     8.329
     3   6 C        3.908     0.008    20.381     6.417
     4   6 C        2.975     0.010    27.794     8.648
     5   6 C        2.919    -0.075    29.862     8.961
     6   6 C        2.862     0.134    25.062     8.206
     7   8 O        1.706    -0.219    17.637     5.670
     8   6 C        3.645     0.025    20.491     6.506
     9   6 C        2.864     0.134    25.060     8.206
    10   8 O        1.706    -0.217    17.596     5.664
    11   6 C        3.645     0.024    20.507     6.508
    12   6 C        2.913    -0.068    29.690     8.935
    13   6 C        2.922    -0.044    29.099     8.846
    14   6 C        3.811    -0.066    21.755     6.639
    15   6 C        3.799    -0.069    21.830     6.653
    16   6 C        3.747    -0.003    20.691     6.488
    17   7 N        2.725    -0.124    23.693     7.229
    18   6 C        3.749    -0.000    20.651     6.481
    19   6 C        2.903    -0.050    29.245     8.867
    20   6 C        2.960     0.016    27.647     8.624
    21   6 C        2.925    -0.036    28.889     8.814
    22   6 C        2.906    -0.061    29.513     8.908
    23   6 C        2.864     0.144    24.863     8.173
    24   8 O        1.706    -0.197    17.294     5.615
    25   6 C        3.645     0.020    20.579     6.520
    26   6 C        2.857     0.136    25.020     8.199
    27   8 O        1.706    -0.226    17.755     5.689
    28   6 C        3.645     0.027    20.461     6.501
    29   6 C        2.914    -0.077    29.930     8.971
    30   6 C        3.702    -0.041    21.465     6.625
    31   6 C        3.854    -0.007    20.674     6.467
    32   6 C        3.756    -0.117    22.804     6.809
    33   6 C        3.755    -0.119    22.833     6.813
    34   1 H        0.926     0.058     2.226     2.333
    35   1 H        0.924     0.057     2.238     2.340
    36   1 H        0.925     0.084     1.935     2.175
    37   1 H        0.924     0.053     2.278     2.360
    38   1 H        0.924     0.059     2.212     2.326
    39   1 H        0.925     0.085     1.932     2.174
    40   1 H        0.924     0.056     2.252     2.347
    41   1 H        0.926     0.058     2.218     2.329
    42   1 H        0.926     0.048     2.344     2.394
    43   1 H        0.925     0.054     2.276     2.359
    44   1 H        0.925     0.053     2.282     2.362
    45   1 H        0.924     0.051     2.306     2.375
    46   1 H        0.924     0.050     2.322     2.383
    47   1 H        0.923     0.048     2.351     2.398
    48   1 H        0.924     0.052     2.300     2.372
    49   1 H        0.924     0.053     2.279     2.361
    50   1 H        0.924     0.058     2.223     2.332
    51   1 H        0.926     0.049     2.334     2.389
    52   1 H        0.923     0.039     2.461     2.453
    53   1 H        0.926     0.060     2.200     2.320
    54   1 H        0.926     0.065     2.145     2.290
    55   1 H        0.924     0.064     2.155     2.296
    56   1 H        0.924     0.064     2.157     2.297
    57   1 H        0.925     0.089     1.890     2.150
    58   1 H        0.925     0.084     1.940     2.178
    59   1 H        0.924     0.053     2.285     2.364
    60   1 H        0.924     0.050     2.326     2.385
    61   1 H        0.926     0.054     2.275     2.359
    62   1 H        0.923     0.039     2.464     2.455
    63   1 H        0.925     0.056     2.241     2.341
    64   1 H        0.925     0.048     2.339     2.392
    65   1 H        0.924     0.040     2.447     2.446
    66   1 H        0.925     0.068     2.109     2.271
    67   1 H        0.925     0.036     2.506     2.476
    68   1 H        0.925     0.053     2.287     2.365
    69   1 H        0.925     0.065     2.136     2.286
    70   1 H        0.925     0.039     2.459     2.452
    71   1 H        0.925     0.056     2.248     2.345
    72   1 H        0.860     0.158     1.350     1.820

Wiberg/Mayer (AO) data.
largest (>0.10) Wiberg bond orders for each atom

     #   Z sym  total        # sym  WBO       # sym  WBO       # sym  WBO
 ---------------------------------------------------------------------------
     1   7 N    3.002 --     2 C    1.950    72 H    0.938
     2   6 C    3.922 --     1 N    1.950     3 C    0.989    47 H    0.908
     3   6 C    3.962 --     2 C    0.989     4 C    0.976    14 C    0.950
                            31 C    0.941
     4   6 C    3.925 --    13 C    1.391     5 C    1.377     3 C    0.976
     5   6 C    3.950 --     6 C    1.390     4 C    1.377    34 H    0.957
     6   6 C    3.882 --     5 C    1.390     9 C    1.209     7 O    1.110
     7   8 O    2.249 --     6 C    1.110     8 C    0.976
     8   6 C    3.927 --     7 O    0.976    36 H    0.976    35 H    0.972
                            37 H    0.972
     9   6 C    3.875 --    12 C    1.376     6 C    1.209    10 O    1.116
    10   8 O    2.248 --     9 C    1.116    11 C    0.975
    11   6 C    3.925 --    39 H    0.976    10 O    0.975    40 H    0.972
                            38 H    0.971
    12   6 C    3.950 --    13 C    1.420     9 C    1.376    41 H    0.962
    13   6 C    3.930 --    12 C    1.420     4 C    1.391    42 H    0.961
    14   6 C    3.983 --    15 C    1.004    44 H    0.968    43 H    0.968
                             3 C    0.950
    15   6 C    3.979 --    14 C    1.004    16 C    0.993    46 H    0.975
                            45 H    0.966
    16   6 C    3.969 --    17 N    0.999    15 C    0.993    48 H    0.969
                            52 H    0.961
    17   7 N    3.096 --    30 C    1.018    16 C    0.999    18 C    0.974
    18   6 C    3.971 --    19 C    1.026    17 N    0.974    49 H    0.962
                            50 H    0.955
    19   6 C    3.549 --    20 C    1.446    18 C    1.026    51 H    0.967
    20   6 C    3.975 --    19 C    1.446    29 C    1.213    21 C    1.211
    21   6 C    3.816 --    22 C    1.522    20 C    1.211    53 H    0.966
    22   6 C    3.966 --    21 C    1.522    23 C    1.314    54 H    0.961
    23   6 C    3.777 --    22 C    1.314    26 C    1.171    24 O    1.152
    24   8 O    2.267 --    23 C    1.152    25 C    0.969
    25   6 C    3.920 --    57 H    0.976    55 H    0.971    56 H    0.970
                            24 O    0.969
    26   6 C    3.911 --    29 C    1.474    23 C    1.171    27 O    1.102
    27   8 O    2.258 --    26 C    1.102    28 C    0.978
    28   6 C    3.931 --    27 O    0.978    58 H    0.976    60 H    0.973
                            59 H    0.973
    29   6 C    3.860 --    26 C    1.474    20 C    1.213    61 H    0.956
    30   6 C    3.971 --    17 N    1.018    64 H    0.979    63 H    0.976
                            62 H    0.965
    31   6 C    3.964 --    32 C    1.008    33 C    1.007    65 H    0.956
                             3 C    0.941
    32   6 C    3.971 --    31 C    1.008    68 H    0.980    67 H    0.980
                            66 H    0.971
    33   6 C    3.972 --    31 C    1.007    70 H    0.981    71 H    0.978
                            69 H    0.971
    34   1 H    0.995 --     5 C    0.957
    35   1 H    0.990 --     8 C    0.972
    36   1 H    0.992 --     8 C    0.976
    37   1 H    0.990 --     8 C    0.972
    38   1 H    0.989 --    11 C    0.971
    39   1 H    0.992 --    11 C    0.976
    40   1 H    0.990 --    11 C    0.972
    41   1 H    0.994 --    12 C    0.962
    42   1 H    0.996 --    13 C    0.961
    43   1 H    0.995 --    14 C    0.968
    44   1 H    0.995 --    14 C    0.968
    45   1 H    0.996 --    15 C    0.966
    46   1 H    0.996 --    15 C    0.975
    47   1 H    0.965 --     2 C    0.908
    48   1 H    0.996 --    16 C    0.969
    49   1 H    0.994 --    18 C    0.962
    50   1 H    0.982 --    18 C    0.955
    51   1 H    0.996 --    19 C    0.967
    52   1 H    0.982 --    16 C    0.961
    53   1 H    0.996 --    21 C    0.966
    54   1 H    0.993 --    22 C    0.961
    55   1 H    0.989 --    25 C    0.971
    56   1 H    0.988 --    25 C    0.970
    57   1 H    0.991 --    25 C    0.976
    58   1 H    0.992 --    28 C    0.976
    59   1 H    0.993 --    28 C    0.973
    60   1 H    0.993 --    28 C    0.973
    61   1 H    0.995 --    29 C    0.956
    62   1 H    0.979 --    30 C    0.965
    63   1 H    0.994 --    30 C    0.976
    64   1 H    0.995 --    30 C    0.979
    65   1 H    0.986 --    31 C    0.956
    66   1 H    0.988 --    32 C    0.971
    67   1 H    0.995 --    32 C    0.980
    68   1 H    0.992 --    32 C    0.980
    69   1 H    0.989 --    33 C    0.971
    70   1 H    0.995 --    33 C    0.981
    71   1 H    0.991 --    33 C    0.978
    72   1 H    0.964 --     1 N    0.938
 ---------------------------------------------------------------------------

molecular dipole:
                 x           y           z       tot (Debye)
 q only:        1.035      -0.046      -0.415
   full:        1.502      -0.146      -0.681       4.208

           -------------------------------------------------
          | TOTAL ENERGY              -99.389471403093 Eh   |
          | GRADIENT NORM               0.003877759999 Eh/α |
          | HOMO-LUMO GAP               1.064767012226 eV   |
           -------------------------------------------------

 * finished run on 2024/04/06 at 11:14:05.183
