   * xtb version 6.6.1 (8d0f1dd) compiled by 'conda@1efc2f54142f' on 2023-08-01
          program call               : xtb struc.xyz --opt loose --input .xc1 --gfn2

   ID    Z sym.   atoms
    1    6 C      1, 3, 5-7, 10, 11, 14
    2    7 N      2, 4, 9, 13
    3    8 O      8, 12
    4    1 H      15-25
constraining bond 6 17 to    5.1400000 Å, actual value:    2.5833586 Å

          :  Hamiltonian                  GFN2-xTB          :
 * total energy  :   -30.5743047 Eh     change       -0.6633627E-10 Eh
 * total energy  :   -34.9393283 Eh     change       -0.4365024E+01 Eh
 * total energy  :   -38.2314988 Eh     change       -0.3292171E+01 Eh
 * total energy  :   -40.3205226 Eh     change       -0.2089024E+01 Eh
 * total energy  :   -41.3775998 Eh     change       -0.1057077E+01 Eh
 * total energy  :   -41.6816843 Eh     change       -0.3040845E+00 Eh
 * total energy  :   -41.7365773 Eh     change       -0.5489304E-01 Eh
 * total energy  :   -41.7673018 Eh     change       -0.3072452E-01 Eh
 * total energy  :   -41.8252395 Eh     change       -0.5793762E-01 Eh
 * total energy  :   -41.8628389 Eh     change       -0.3759941E-01 Eh
 * total energy  :   -42.0821105 Eh     change       -0.6143691E-03 Eh
 * total energy  :   -42.0823805 Eh     change       -0.2699451E-03 Eh
 * total energy  :   -42.0825535 Eh     change       -0.1730060E-03 Eh
 * total energy  :   -42.0827623 Eh     change       -0.2088043E-03 Eh
 * total energy  :   -42.0828885 Eh     change       -0.1261983E-03 Eh
 * total energy  :   -42.0829931 Eh     change       -0.1046057E-03 Eh
 * total energy  :   -42.0830256 Eh     change       -0.3253589E-04 Eh
 * total energy  :   -42.0830620 Eh     change       -0.3639104E-04 Eh
 * total energy  :   -42.0831104 Eh     change       -0.4837490E-04 Eh
   *** GEOMETRY OPTIMIZATION CONVERGED AFTER 42 ITERATIONS ***

 final structure:
================
25
 xtb: 6.6.1 (8d0f1dd)
C            3.17866572789905        0.83437894046885        0.07660783588633
N            2.27073729461177       -0.13341255025580        0.04542827275836
C            2.48340897609564       -1.46913270521611        0.02645212492707
N            1.29399060113884       -2.12194049324919       -0.00105498491935
C            0.29592775437561       -1.19178501531976       -0.00118280608990
C            0.89161396331405        0.05466802597387        0.02905378606369
C            0.11556148125425        1.27817665026090        0.04339622841678
O            0.56867955456553        2.39670175918002        0.06085688139102
N           -1.25021802377355        0.99993117514750        0.03934972730203
C           -2.16454083239050        2.13611427279484        0.07692482248519
C           -1.87210874725133       -0.23406795384475        0.00424931754252
O           -3.06232745991222       -0.35995307827245       -0.00403582475789
N           -1.03082140504050       -1.37527056890637       -0.02066504059318
C           -1.63429912191154       -2.69294458587579       -0.05531495519234
H            2.83325298690746        1.85352924168805        0.08358345384043
H            4.22274793543727        0.58257593155010        0.08695520170105
H            3.96852688692091        4.13301438778986       -0.54029502958009
H            3.44388769313611       -1.94133534297640        0.03703644857152
H           -1.56994226534316        3.04503563785969        0.11471161648313
H           -2.79509205495051        2.13262130669905       -0.81088967972183
H           -2.80386861120695        2.06325185880379        0.95610663186193
H           -1.33491072351083       -3.27343361668920        0.81789164824358
H           -1.35797371120247       -3.21783738950166       -0.97024649003223
H           -2.71482332799750       -2.55546841907353       -0.03780127838226
H            1.18435694293457       -3.12517892743552       -0.02594629030562

          :  Hamiltonian                  GFN2-xTB          :
         :: total energy             -42.083110407721 Eh    ::
         :: gradient norm              0.002201726648 Eh/a0 ::
         :: HOMO-LUMO gap              0.110900904906 eV    ::
         :: SCC energy               -42.607853081381 Eh    ::
         :: -> dispersion             -0.022755538805 Eh    ::
         :: repulsion energy           0.524651351840 Eh    ::

    * Orbital Energies and Occupations

         #    Occupation            Energy/Eh            Energy/eV
      -------------------------------------------------------------
         1        2.0000           -0.9097690             -24.7561
       ...           ...                  ...                  ...
        25        2.0000           -0.6627466             -18.0343
        26        2.0000           -0.6601346             -17.9632
        27        2.0000           -0.6513588             -17.7244
        28        2.0000           -0.6390961             -17.3907
        29        2.0000           -0.6256574             -17.0250
        30        2.0000           -0.6212698             -16.9056
        31        2.0000           -0.6138166             -16.7028
        32        1.9999           -0.5921712             -16.1138
        33        1.9991           -0.5723081             -15.5733
        34        1.9931           -0.5561341             -15.1332
        35        1.9921           -0.5550890             -15.1047
        36        1.9903           -0.5534361             -15.0598
        37        1.1407           -0.5135313             -13.9739 (HOMO)
        38        0.8848           -0.5094558             -13.8630 (LUMO)
        39        0.0000           -0.4072722             -11.0824
        40        0.0000           -0.3982128             -10.8359
        41                         -0.3623196              -9.8592
        42                         -0.2798890              -7.6162
        43                         -0.2018622              -5.4930
        44                         -0.1845258              -5.0212
        45                         -0.1402422              -3.8162
        46                         -0.1092611              -2.9731
        47                         -0.0819292              -2.2294
        48                         -0.0466919              -1.2706
       ...                                ...                  ...
        67                          0.5664808              15.4147
      -------------------------------------------------------------
                  HL-Gap            0.0040755 Eh            0.1109 eV

     #   Z          covCN         q      C6AA      α(0)
     1   6 C        2.791    -0.064    29.583     8.910
     2   7 N        2.814     0.131    19.005     6.475
     3   6 C        3.035     0.031    27.278     8.567
     4   7 N        2.782    -0.057    22.333     7.019
     5   6 C        3.024     0.120    25.336     8.257
     6   6 C        3.108    -0.044    28.931     8.813
     7   6 C        2.764     0.276    22.341     7.741
     8   8 O        0.858    -0.378    21.252     6.181
     9   7 N        2.746    -0.088    22.953     7.116
    10   6 C        3.710    -0.061    21.817     6.675
    11   6 C        2.727     0.318    21.590     7.607
    12   8 O        0.859    -0.358    20.865     6.124
    13   7 N        2.738    -0.059    22.373     7.025
    14   6 C        3.696    -0.072    22.052     6.718
    15   1 H        0.926     0.139     1.466     1.893
    16   1 H        0.926     0.110     1.699     2.038
    17   1 H        0.000     0.110     4.226     3.759
    18   1 H        0.927     0.122     1.594     1.975
    19   1 H        0.925     0.110     1.693     2.035
    20   1 H        0.925     0.096     1.820     2.109
    21   1 H        0.925     0.096     1.822     2.111
    22   1 H        0.924     0.081     1.967     2.193
    23   1 H        0.924     0.082     1.956     2.187
    24   1 H        0.925     0.128     1.550     1.947
    25   1 H        0.860     0.229     0.970     1.543

Wiberg/Mayer (AO) data.
largest (>0.10) Wiberg bond orders for each atom

     #   Z sym  total        # sym  WBO       # sym  WBO       # sym  WBO
 ---------------------------------------------------------------------------
     1   6 C    3.384 --     2 N    1.335    16 H    0.967    15 H    0.953
     2   7 N    3.768 --     1 C    1.335     3 C    1.246     6 C    1.089
     3   6 C    3.651 --     4 N    1.260     2 N    1.246    18 H    0.954
     4   7 N    3.523 --     3 C    1.260     5 C    1.178    25 H    0.919
     5   6 C    3.947 --     6 C    1.363    13 N    1.228     4 N    1.178
     6   6 C    3.876 --     5 C    1.363     2 N    1.089     7 C    1.076
     7   6 C    3.965 --     8 O    1.692     9 N    1.103     6 C    1.076
     8   8 O    2.051 --     7 C    1.692     9 N    0.150
     9   7 N    3.559 --    11 C    1.128     7 C    1.103    10 C    0.968
                             8 O    0.150    12 O    0.141
    10   6 C    3.918 --    19 H    0.970     9 N    0.968    21 H    0.966
                            20 H    0.966
    11   6 C    3.960 --    12 O    1.718     9 N    1.128    13 N    1.023
    12   8 O    2.076 --    11 C    1.718     9 N    0.141    13 N    0.122
    13   7 N    3.550 --     5 C    1.228    11 C    1.023    14 C    0.975
                            12 O    0.122
    14   6 C    3.925 --    13 N    0.975    22 H    0.971    23 H    0.970
                            24 H    0.964
    15   1 H    0.981 --     1 C    0.953
    16   1 H    0.987 --     1 C    0.967
    17   1 H    0.004
    18   1 H    0.984 --     3 C    0.954
    19   1 H    0.987 --    10 C    0.970
    20   1 H    0.987 --    10 C    0.966
    21   1 H    0.987 --    10 C    0.966
    22   1 H    0.990 --    14 C    0.971
    23   1 H    0.989 --    14 C    0.970
    24   1 H    0.983 --    14 C    0.964
    25   1 H    0.947 --     4 N    0.919
 ---------------------------------------------------------------------------

molecular dipole:
                 x           y           z       tot (Debye)
 q only:        2.910      -1.664      -0.080
   full:        3.202      -2.165      -0.088       9.827

           -------------------------------------------------
          | TOTAL ENERGY              -42.083110407721 Eh   |
          | GRADIENT NORM               0.002201726648 Eh/α |
          | HOMO-LUMO GAP               0.110900904906 eV   |
           -------------------------------------------------

 * finished run on 2024/06/05 at 19:58:01.195
