   * xtb version 6.6.1 (8d0f1dd) compiled by 'conda@1efc2f54142f' on 2023-08-01
          program call               : xtb xtbopt.xyz --opt crude --input .xc2 --gfn2

   ID    Z sym.   atoms
    1    6 C      1, 3, 5-7, 10, 11, 14
    2    7 N      2, 4, 9, 13
    3    8 O      8, 12
    4    1 H      15-25
########################################################################
[WARNING] Please study the warnings concerning your input carefully
-1- readin_getIntValue: could not parse ''
########################################################################

          :  Hamiltonian                  GFN2-xTB          :
 * total energy  :   -42.0328654 Eh     change       -0.5904610E-11 Eh
   *** GEOMETRY OPTIMIZATION CONVERGED AFTER 1 ITERATIONS ***

 final structure:
================
25
 xtb: 6.6.1 (8d0f1dd)
C            3.70668308077695        0.85608540461901        0.14433190266799
N            2.58068399505771       -0.02116634924087        0.00985329174003
C            2.59433865191147       -1.31044064172336       -0.31557493909419
N            1.33601454298697       -1.78847421971966       -0.31509452791884
C            0.44638042590958       -0.79911221644977        0.00772543641807
C            1.24264645293880        0.37760547247145        0.24175974059687
C            0.91968262839483        1.59949950727123        0.68439158027265
O            0.63179845424035        2.67424857054865        1.03537560748113
N           -2.65162524406585        0.58691259274342       -0.57274968482861
C           -3.07497400491298        1.95626953404022       -0.46544567519280
C           -1.76417129541318        0.02534892309313        0.35928223526439
O           -3.09523024789017       -0.27753665662334        0.50555275997182
N           -0.87577206993171       -1.01222384479539        0.09323837427794
C           -1.35209222229760       -2.39216755857829        0.13566278248456
H            3.90860137770041        1.06240392661983        1.19633994123222
H            4.58356926230162        0.39577256820588       -0.30074472467379
H            3.50472778260124        1.80112261719560       -0.35863904901147
H            3.46867725894329       -1.88341878617872       -0.54970535449195
H           -2.33884220153622        2.56920024298288       -0.98112313874325
H           -4.03514093191284        2.04225941402032       -0.97107137485005
H           -3.18118271602207        2.28566287848754        0.57011515481742
H           -0.82707862798153       -2.96864307392740        0.89711264849214
H           -1.23691153056512       -2.85465351305547       -0.84559491889456
H           -2.41297339388450       -2.37015695108819        0.37865404615858
H            1.08262208675155       -2.73615929931849       -0.55248049627628

          :  Hamiltonian                  GFN2-xTB          :
         :: total energy             -42.032865412479 Eh    ::
         :: gradient norm              0.009944145563 Eh/a0 ::
         :: HOMO-LUMO gap              0.851827188822 eV    ::
         :: SCC energy               -42.539592017546 Eh    ::
         :: -> dispersion             -0.021031975914 Eh    ::
         :: repulsion energy           0.506619378664 Eh    ::

    * Orbital Energies and Occupations

         #    Occupation            Energy/Eh            Energy/eV
      -------------------------------------------------------------
         1        2.0000           -0.9026272             -24.5617
       ...           ...                  ...                  ...
        25        2.0000           -0.6712125             -18.2646
        26        2.0000           -0.6623591             -18.0237
        27        2.0000           -0.6593001             -17.9405
        28        2.0000           -0.6415173             -17.4566
        29        2.0000           -0.6361965             -17.3118
        30        1.9999           -0.6245126             -16.9939
        31        1.9999           -0.6180105             -16.8169
        32        1.9999           -0.6167763             -16.7833
        33        1.9992           -0.5884533             -16.0126
        34        1.9989           -0.5831673             -15.8688
        35        1.9950           -0.5596503             -15.2289
        36        1.9563           -0.5250918             -14.2885
        37        1.3470           -0.4763763             -12.9629 (HOMO)
        38        0.4444           -0.4450723             -12.1110 (LUMO)
        39        0.2323           -0.4327795             -11.7765
        40        0.0273           -0.3971465             -10.8069
        41        0.0001           -0.3053655              -8.3094
        42        0.0000           -0.2718593              -7.3977
        43                         -0.1947894              -5.3005
        44                         -0.1818777              -4.9491
        45                         -0.1571493              -4.2763
        46                         -0.1003444              -2.7305
        47                         -0.0936378              -2.5480
        48                         -0.0440439              -1.1985
       ...                                ...                  ...
        67                          0.9231787              25.1210
      -------------------------------------------------------------
                  HL-Gap            0.0313041 Eh            0.8518 eV

     #   Z          covCN         q      C6AA      α(0)
     1   6 C        3.691    -0.084    22.299     6.758
     2   7 N        2.816     0.048    20.410     6.710
     3   6 C        2.966     0.049    26.888     8.505
     4   7 N        2.784    -0.059    22.382     7.026
     5   6 C        2.979     0.104    25.684     8.313
     6   6 C        3.030    -0.012    28.291     8.725
     7   6 C        1.843     0.217    26.058     8.246
     8   8 O        0.856    -0.140    17.115     5.547
     9   7 N        2.719    -0.028    21.795     6.934
    10   6 C        3.688    -0.053    21.732     6.673
    11   6 C        2.704     0.118    25.375     8.245
    12   8 O        1.755    -0.254    18.197     5.760
    13   7 N        2.731    -0.014    21.522     6.890
    14   6 C        3.703    -0.072    22.043     6.713
    15   1 H        0.924     0.103     1.762     2.076
    16   1 H        0.925     0.103     1.755     2.072
    17   1 H        0.925     0.102     1.768     2.080
    18   1 H        0.926     0.118     1.631     1.997
    19   1 H        0.925     0.077     2.010     2.217
    20   1 H        0.925     0.095     1.830     2.116
    21   1 H        0.924     0.076     2.018     2.221
    22   1 H        0.925     0.074     2.037     2.232
    23   1 H        0.924     0.082     1.953     2.186
    24   1 H        0.925     0.123     1.592     1.973
    25   1 H        0.860     0.227     0.979     1.550

Wiberg/Mayer (AO) data.
largest (>0.10) Wiberg bond orders for each atom

     #   Z sym  total        # sym  WBO       # sym  WBO       # sym  WBO
 ---------------------------------------------------------------------------
     1   6 C    3.933 --     2 N    0.997    16 H    0.973    17 H    0.965
                            15 H    0.958
     2   7 N    3.534 --     3 C    1.351     6 C    1.040     1 C    0.997
     3   6 C    3.754 --     2 N    1.351     4 N    1.269    18 H    0.952
     4   7 N    3.568 --     3 C    1.269     5 C    1.179    25 H    0.916
     5   6 C    3.798 --    13 N    1.256     4 N    1.179     6 C    1.154
     6   6 C    3.869 --     7 C    1.402     5 C    1.154     2 N    1.040
                             8 O    0.118
     7   6 C    3.521 --     8 O    2.020     6 C    1.402
     8   8 O    2.217 --     7 C    2.020     6 C    0.118
     9   7 N    2.963 --    10 C    1.014    11 C    0.983    12 O    0.895
    10   6 C    3.944 --     9 N    1.014    21 H    0.965    20 H    0.965
                            19 H    0.965
    11   6 C    3.180 --    13 N    1.080     9 N    0.983    12 O    0.968
    12   8 O    1.972 --    11 C    0.968     9 N    0.895
    13   7 N    3.509 --     5 C    1.256    11 C    1.080    14 C    0.960
    14   6 C    3.917 --    22 H    0.974    24 H    0.965    23 H    0.964
                            13 N    0.960
    15   1 H    0.982 --     1 C    0.958
    16   1 H    0.988 --     1 C    0.973
    17   1 H    0.985 --     1 C    0.965
    18   1 H    0.983 --     3 C    0.952
    19   1 H    0.992 --    10 C    0.965
    20   1 H    0.984 --    10 C    0.965
    21   1 H    0.981 --    10 C    0.965
    22   1 H    0.992 --    14 C    0.974
    23   1 H    0.985 --    14 C    0.964
    24   1 H    0.984 --    14 C    0.965
    25   1 H    0.947 --     4 N    0.916
 ---------------------------------------------------------------------------

molecular dipole:
                 x           y           z       tot (Debye)
 q only:        2.926      -1.319      -0.528
   full:        2.966      -1.641      -0.488       8.705

           -------------------------------------------------
          | TOTAL ENERGY              -42.032865412479 Eh   |
          | GRADIENT NORM               0.009944145563 Eh/α |
          | HOMO-LUMO GAP               0.851827188822 eV   |
           -------------------------------------------------

 * finished run on 2024/06/05 at 20:00:14.030
