   * xtb version 6.6.1 (8d0f1dd) compiled by 'conda@1efc2f54142f' on 2023-08-01
          program call               : xtb struc.xyz --opt loose --input .xc1 --gfn2

   ID    Z sym.   atoms
    1    7 N      1, 17
    2    6 C      2-6, 8, 9, 11-16, 18-23, 25, 26, 28-33
    3    8 O      7, 10, 24, 27
    4    1 H      34-72
constraining bond 5 42 to    3.7133300 Å, actual value:    3.3780226 Å

          :  Hamiltonian                  GFN2-xTB          :
 * total energy  :   -99.4242058 Eh     change       -0.4035485E-08 Eh
 * total energy  :   -99.4587295 Eh     change       -0.3452365E-01 Eh
 * total energy  :   -99.4828696 Eh     change       -0.2414010E-01 Eh
 * total energy  :   -99.5089064 Eh     change       -0.2603678E-01 Eh
 * total energy  :   -99.5790179 Eh     change       -0.7011152E-01 Eh
 * total energy  :   -99.7293842 Eh     change       -0.1503663E+00 Eh
 * total energy  :   -99.9189053 Eh     change       -0.1895211E+00 Eh
 * total energy  :  -100.2698301 Eh     change       -0.3509248E+00 Eh
 * total energy  :  -100.0006647 Eh     change        0.2691654E+00 Eh
 * total energy  :  -100.4146702 Eh     change       -0.4140055E+00 Eh
 * total energy  :  -100.8395715 Eh     change       -0.1154041E-03 Eh
 * total energy  :  -100.8396690 Eh     change       -0.9753372E-04 Eh
 * total energy  :  -100.8397697 Eh     change       -0.1007010E-03 Eh
 * total energy  :  -100.8398597 Eh     change       -0.8999132E-04 Eh
 * total energy  :  -100.8399441 Eh     change       -0.8442741E-04 Eh
 * total energy  :  -100.8400193 Eh     change       -0.7511297E-04 Eh
 * total energy  :  -100.8401187 Eh     change       -0.9946991E-04 Eh
 * total energy  :  -100.8401852 Eh     change       -0.6645511E-04 Eh
 * total energy  :  -100.8402302 Eh     change       -0.4505647E-04 Eh
   *** GEOMETRY OPTIMIZATION CONVERGED AFTER 119 ITERATIONS ***

 final structure:
================
72
 xtb: 6.6.1 (8d0f1dd)
N           -0.86657035146074        1.20791197242009        0.82588670737799
C           -2.26903328146059        1.15470685643435        1.06217919634997
C           -3.16721297627523        1.96379347167690        0.05766433551524
C           -3.94194314697503        0.67734837630547       -0.11475753553927
C           -5.13501307253219        0.15678675568863       -0.84162072194579
C           -5.27822576641718       -1.31379092524835       -0.49821840311120
O           -6.29405662668436       -2.02265805054631       -1.00658194646603
C           -7.24388874505071       -1.39921692378875       -1.84153775499969
C           -4.40039573708468       -2.02991800558887        0.33419376924616
O           -4.73138589906233       -3.33538398505395        0.48109955567820
C           -3.94969333414247       -4.15481770689369        1.32087614982160
C           -3.29736296787437       -1.41868090687318        0.95100192815684
C           -3.12704573696557       -0.05898869041528        0.68639650434202
C           -2.39053162308103        2.33776166218822       -1.21004448200850
C           -1.39895841116040        1.24052040283190       -1.58038603079354
C           -0.30195077998824        1.15687621937242       -0.51396800139525
N            0.57493485659322        0.02885419637037       -0.73152797207612
C            1.95772159069853        0.17740801736202       -0.34136327164927
C            2.92074723779835       -0.40159525640518       -1.39635851664943
C            4.33512010408902       -0.15776122000601       -0.96019499091786
C            4.97685780319037        1.03602369886651       -1.26143327125170
C            6.25982651523666        1.29041338613768       -0.80470573287356
C            6.93357566139300        0.35421504310961       -0.03095754750526
O            8.17290978600734        0.49544244301776        0.47347061690273
C            8.89867406972246        1.67268333932193        0.20398351887163
C            6.28820053602881       -0.87641151722143        0.27810357164671
O            7.01376877174358       -1.73243326541755        1.02368152560432
C            6.46543823642477       -2.98244973384652        1.36801886009826
C            5.00211502777430       -1.10481692673024       -0.18795860797730
C            0.04006926111266       -1.29305261486938       -0.50354918502914
C           -3.96287189436212        3.15420346635961        0.62444956150334
C           -4.90127071248560        2.73362286214832        1.75682612787006
C           -3.04585842134482        4.27362976901797        1.11666045810406
H           -4.89861258018957        0.19792028912680       -1.93107868270352
H           -7.77900319940794       -0.60040477042247       -1.31980988675298
H           -7.94824105265896       -2.18189995912205       -2.11749064233253
H           -6.78081025605268       -0.99589593234380       -2.74714959474102
H           -3.94599151270361       -3.78670721660853        2.35111191477479
H           -4.42695395046093       -5.13290820783957        1.29110741494293
H           -2.92178852981687       -4.24118894438171        0.95571459173226
H           -2.64154789006421       -1.96552356970945        1.60382470750219
H           -5.78778589260707        0.57032586878718       -0.69551299099882
H           -3.09460723238431        2.50223602988514       -2.02722365741889
H           -1.84092866424930        3.26265106720400       -1.04296877517403
H           -1.91562530324257        0.28565230116063       -1.67413639787056
H           -0.92728186246257        1.46155260723191       -2.53725485780998
H           -2.43735000033105        1.43472603117072        2.10518612668446
H            0.32773888122733        2.05397404750380       -0.62668602336745
H            2.15756104176797       -0.32061848920194        0.62105347561983
H            2.18395927965809        1.23903050871369       -0.22056977601657
H            2.72538228644875        0.08796385556136       -2.35080403803662
H            2.74037073732771       -1.47017012489581       -1.51031154616414
H            4.47525039242660        1.77791761565083       -1.86384795108610
H            6.73142211604255        2.22645032774764       -1.05640450117292
H            8.40258160638037        2.55344687761176        0.62353546668188
H            9.04823328474085        1.81434235902726       -0.87029419379820
H            9.86397711394929        1.53747170899504        0.68847581322192
H            7.23071504115163       -3.48548398293667        1.95612613008469
H            5.56000946779290       -2.87019540004435        1.97278364225987
H            6.24042093927890       -3.57991142278743        0.47912054285979
H            4.50406524344425       -2.03416522110650        0.04041754447560
H            0.41368836405046       -1.97463502347228       -1.26943875046435
H           -1.04573198833116       -1.27980726878170       -0.55743845322709
H            0.33566575235854       -1.69161529787162        0.47739158218800
H           -4.57735575010684        3.54137151346923       -0.19749890196154
H           -4.34131721219789        2.44858459403986        2.64385349913070
H           -5.53186741569771        1.89694459815525        1.46838344840694
H           -5.54421146467283        3.56763558773179        2.02453080679733
H           -2.31386556409756        3.88975240143136        1.82201103724864
H           -2.51759580856835        4.75220502088483        0.29864727471670
H           -3.63767175135801        5.03518265538868        1.61730454045760
H           -0.31507104280121        0.70770627780789        1.50727648901867

          :  Hamiltonian                  GFN2-xTB          :
         :: total energy            -100.840230243359 Eh    ::
         :: gradient norm              0.003746636528 Eh/a0 ::
         :: HOMO-LUMO gap              1.127985674929 eV    ::
         :: SCC energy              -100.756791600193 Eh    ::
         :: -> dispersion             -0.074759459972 Eh    ::
         :: repulsion energy           1.445245383040 Eh    ::

    * Orbital Energies and Occupations

         #    Occupation            Energy/Eh            Energy/eV
      -------------------------------------------------------------
         1        2.0000           -0.8326964             -22.6588
       ...           ...                  ...                  ...
        78        1.9981           -0.5288413             -14.3905
        79        1.9979           -0.5275506             -14.3554
        80        1.9976           -0.5250607             -14.2876
        81        1.9970           -0.5217603             -14.1978
        82        1.9963           -0.5182055             -14.1011
        83        1.9951           -0.5139776             -13.9860
        84        1.9949           -0.5131573             -13.9637
        85        1.9918           -0.5057194             -13.7613
        86        1.9675           -0.4836943             -13.1620
        87        1.9411           -0.4740621             -12.8999
        88        1.9234           -0.4697601             -12.7828
        89        1.8112           -0.4545207             -12.3681
        90        1.7383           -0.4487056             -12.2099 (HOMO)
        91        0.6529           -0.4072528             -11.0819 (LUMO)
        92        0.0038           -0.3196765              -8.6988
        93        0.0017           -0.3070211              -8.3545
        94        0.0015           -0.3049933              -8.2993
        95        0.0000           -0.2369057              -6.4465
        96        0.0000           -0.1825759              -4.9681
        97                         -0.1036283              -2.8199
        98                         -0.1027140              -2.7950
        99                         -0.0956373              -2.6024
       100                         -0.0911867              -2.4813
       101                         -0.0856095              -2.3296
       ...                                ...                  ...
       171                          1.1100956              30.2072
      -------------------------------------------------------------
                  HL-Gap            0.0414527 Eh            1.1280 eV

     #   Z          covCN         q      C6AA      α(0)
     1   7 N        2.680    -0.220    25.799     7.544
     2   6 C        4.073     0.043    19.774     6.316
     3   6 C        4.161     0.009    20.348     6.407
     4   6 C        3.251    -0.024    27.519     8.491
     5   6 C        3.807    -0.095    22.303     6.723
     6   6 C        2.852     0.120    25.354     8.253
     7   8 O        1.706    -0.194    17.233     5.605
     8   6 C        3.644     0.018    20.612     6.526
     9   6 C        2.860     0.127    25.223     8.232
    10   8 O        1.706    -0.237    17.922     5.716
    11   6 C        3.643     0.027    20.461     6.503
    12   6 C        2.904    -0.076    29.892     8.965
    13   6 C        3.221    -0.022    27.800     8.572
    14   6 C        3.808    -0.064    21.720     6.634
    15   6 C        3.806    -0.070    21.840     6.653
    16   6 C        3.731     0.099    19.041     6.229
    17   7 N        2.728    -0.140    24.024     7.280
    18   6 C        3.752     0.004    20.573     6.468
    19   6 C        3.808    -0.072    21.879     6.658
    20   6 C        2.969     0.009    27.808     8.650
    21   6 C        2.922    -0.045    29.113     8.848
    22   6 C        2.913    -0.066    29.634     8.926
    23   6 C        2.864     0.134    25.066     8.207
    24   8 O        1.706    -0.218    17.623     5.668
    25   6 C        3.645     0.024    20.502     6.508
    26   6 C        2.862     0.134    25.062     8.206
    27   8 O        1.706    -0.221    17.670     5.675
    28   6 C        3.645     0.026    20.465     6.502
    29   6 C        2.920    -0.076    29.909     8.968
    30   6 C        3.698    -0.040    21.466     6.626
    31   6 C        3.850    -0.016    20.822     6.490
    32   6 C        3.755    -0.112    22.699     6.793
    33   6 C        3.756    -0.115    22.750     6.801
    34   1 H        0.921     0.086     1.915     2.164
    35   1 H        0.924     0.064     2.150     2.293
    36   1 H        0.925     0.092     1.855     2.130
    37   1 H        0.924     0.063     2.168     2.302
    38   1 H        0.924     0.054     2.270     2.356
    39   1 H        0.925     0.083     1.951     2.185
    40   1 H        0.924     0.050     2.321     2.382
    41   1 H        0.926     0.056     2.244     2.343
    42   1 H        0.930     0.125     1.570     1.959
    43   1 H        0.924     0.048     2.344     2.394
    44   1 H        0.925     0.061     2.190     2.314
    45   1 H        0.925     0.046     2.372     2.408
    46   1 H        0.925     0.057     2.240     2.341
    47   1 H        0.924     0.058     2.224     2.332
    48   1 H        0.923     0.052     2.299     2.371
    49   1 H        0.923     0.031     2.575     2.510
    50   1 H        0.924     0.048     2.343     2.394
    51   1 H        0.924     0.060     2.198     2.319
    52   1 H        0.925     0.054     2.265     2.353
    53   1 H        0.926     0.052     2.295     2.369
    54   1 H        0.926     0.060     2.203     2.321
    55   1 H        0.924     0.056     2.244     2.342
    56   1 H        0.924     0.058     2.227     2.334
    57   1 H        0.925     0.083     1.949     2.183
    58   1 H        0.925     0.082     1.958     2.188
    59   1 H        0.924     0.051     2.309     2.376
    60   1 H        0.924     0.055     2.260     2.351
    61   1 H        0.926     0.052     2.300     2.371
    62   1 H        0.924     0.056     2.243     2.342
    63   1 H        0.925     0.052     2.289     2.366
    64   1 H        0.923     0.032     2.552     2.498
    65   1 H        0.924     0.042     2.419     2.432
    66   1 H        0.925     0.041     2.432     2.439
    67   1 H        0.925     0.034     2.529     2.487
    68   1 H        0.925     0.052     2.289     2.366
    69   1 H        0.925     0.046     2.364     2.405
    70   1 H        0.925     0.042     2.418     2.431
    71   1 H        0.925     0.055     2.261     2.352
    72   1 H        0.860     0.156     1.361     1.827

Wiberg/Mayer (AO) data.
largest (>0.10) Wiberg bond orders for each atom

     #   Z sym  total        # sym  WBO       # sym  WBO       # sym  WBO
 ---------------------------------------------------------------------------
     1   7 N    3.081 --     2 C    1.034    16 C    0.981    72 H    0.946
     2   6 C    3.963 --     1 N    1.034    47 H    0.944    13 C    0.943
                             3 C    0.941
     3   6 C    3.969 --     4 C    0.990    14 C    0.972    31 C    0.961
                             2 C    0.941
     4   6 C    3.758 --    13 C    1.541     5 C    1.027     3 C    0.990
     5   6 C    3.972 --     4 C    1.027     6 C    1.015    42 H    0.938
                            34 H    0.898
     6   6 C    3.674 --     9 C    1.324     7 O    1.158     5 C    1.015
     7   8 O    2.276 --     6 C    1.158     8 C    0.972
     8   6 C    3.920 --    36 H    0.976     7 O    0.972    35 H    0.969
                            37 H    0.968
     9   6 C    3.901 --     6 C    1.324    12 C    1.320    10 O    1.087
    10   8 O    2.240 --     9 C    1.087    11 C    0.977
    11   6 C    3.930 --    10 O    0.977    39 H    0.976    40 H    0.974
                            38 H    0.974
    12   6 C    3.742 --     9 C    1.320    13 C    1.299    41 H    0.963
    13   6 C    3.937 --     4 C    1.541    12 C    1.299     2 C    0.943
    14   6 C    3.978 --    15 C    1.007    43 H    0.972     3 C    0.972
                            44 H    0.965
    15   6 C    3.980 --    14 C    1.007    16 C    0.981    46 H    0.974
                            45 H    0.967
    16   6 C    3.961 --    17 N    0.994     1 N    0.981    15 C    0.981
                            48 H    0.943
    17   7 N    3.122 --    30 C    1.014    18 C    1.008    16 C    0.994
    18   6 C    3.966 --    17 N    1.008    50 H    0.969    19 C    0.969
                            49 H    0.959
    19   6 C    3.977 --    20 C    1.015    52 H    0.970    51 H    0.970
                            18 C    0.969
    20   6 C    3.928 --    21 C    1.392    29 C    1.385    19 C    1.015
    21   6 C    3.930 --    22 C    1.425    20 C    1.392    53 H    0.967
    22   6 C    3.951 --    21 C    1.425    23 C    1.375    54 H    0.963
    23   6 C    3.875 --    22 C    1.375    26 C    1.213    24 O    1.113
    24   8 O    2.245 --    23 C    1.113    25 C    0.976
    25   6 C    3.926 --    57 H    0.977    24 O    0.976    56 H    0.972
                            55 H    0.972
    26   6 C    3.882 --    29 C    1.389    23 C    1.213    27 O    1.107
    27   8 O    2.247 --    26 C    1.107    28 C    0.978
    28   6 C    3.930 --    27 O    0.978    58 H    0.977    59 H    0.973
                            60 H    0.972
    29   6 C    3.953 --    26 C    1.389    20 C    1.385    61 H    0.962
    30   6 C    3.972 --    17 N    1.014    63 H    0.973    62 H    0.972
                            64 H    0.969
    31   6 C    3.976 --    32 C    1.007    33 C    1.007    65 H    0.962
                             3 C    0.961
    32   6 C    3.989 --    31 C    1.007    68 H    0.984    67 H    0.982
                            66 H    0.982
    33   6 C    3.987 --    31 C    1.007    69 H    0.984    71 H    0.981
                            70 H    0.981
    34   1 H    0.946 --     5 C    0.898
    35   1 H    0.989 --     8 C    0.969
    36   1 H    0.991 --     8 C    0.976
    37   1 H    0.989 --     8 C    0.968
    38   1 H    0.994 --    11 C    0.974
    39   1 H    0.992 --    11 C    0.976
    40   1 H    0.994 --    11 C    0.974
    41   1 H    0.995 --    12 C    0.963
    42   1 H    0.969 --     5 C    0.938
    43   1 H    0.996 --    14 C    0.972
    44   1 H    0.994 --    14 C    0.965
    45   1 H    0.997 --    15 C    0.967
    46   1 H    0.995 --    15 C    0.974
    47   1 H    0.989 --     2 C    0.944
    48   1 H    0.986 --    16 C    0.943
    49   1 H    0.985 --    18 C    0.959
    50   1 H    0.997 --    18 C    0.969
    51   1 H    0.993 --    19 C    0.970
    52   1 H    0.995 --    19 C    0.970
    53   1 H    0.996 --    21 C    0.967
    54   1 H    0.994 --    22 C    0.963
    55   1 H    0.990 --    25 C    0.972
    56   1 H    0.990 --    25 C    0.972
    57   1 H    0.992 --    25 C    0.977
    58   1 H    0.992 --    28 C    0.977
    59   1 H    0.991 --    28 C    0.973
    60   1 H    0.991 --    28 C    0.972
    61   1 H    0.996 --    29 C    0.962
    62   1 H    0.987 --    30 C    0.972
    63   1 H    0.997 --    30 C    0.973
    64   1 H    0.987 --    30 C    0.969
    65   1 H    0.995 --    31 C    0.962
    66   1 H    0.997 --    32 C    0.982
    67   1 H    0.998 --    32 C    0.982
    68   1 H    0.996 --    32 C    0.984
    69   1 H    0.996 --    33 C    0.984
    70   1 H    0.997 --    33 C    0.981
    71   1 H    0.994 --    33 C    0.981
    72   1 H    0.974 --     1 N    0.946
 ---------------------------------------------------------------------------

molecular dipole:
                 x           y           z       tot (Debye)
 q only:       -1.024       0.097      -0.505
   full:       -1.095      -0.067      -0.343       2.921

           -------------------------------------------------
          | TOTAL ENERGY             -100.840230243359 Eh   |
          | GRADIENT NORM               0.003746636528 Eh/α |
          | HOMO-LUMO GAP               1.127985674929 eV   |
           -------------------------------------------------

 * finished run on 2024/04/06 at 11:16:08.855
