   * xtb version 6.6.1 (8d0f1dd) compiled by 'conda@1efc2f54142f' on 2023-08-01
          program call               : xtb xtbopt.xyz --opt crude --input .xc2 --gfn2

   ID    Z sym.   atoms
    1    7 N      1, 17
    2    6 C      2-6, 8, 9, 11-16, 18-23, 25, 26, 28-33
    3    8 O      7, 10, 24, 27
    4    1 H      34-72
########################################################################
[WARNING] Please study the warnings concerning your input carefully
-1- readin_getIntValue: could not parse ''
########################################################################

          :  Hamiltonian                  GFN2-xTB          :
 * total energy  :   -99.3106123 Eh     change       -0.6750156E-11 Eh
 * total energy  :   -99.4202606 Eh     change       -0.1096483E+00 Eh
 * total energy  :   -99.4217392 Eh     change       -0.1478645E-02 Eh
 * total energy  :   -99.4226611 Eh     change       -0.9219238E-03 Eh
 * total energy  :   -99.4227604 Eh     change       -0.9925637E-04 Eh
   *** GEOMETRY OPTIMIZATION CONVERGED AFTER 5 ITERATIONS ***

 final structure:
================
72
 xtb: 6.6.1 (8d0f1dd)
N           -0.86701130251988        1.20853086173316        0.82841149210586
C           -2.26959913164096        1.15631474203524        1.06439707288773
C           -3.16478941442029        1.96196943058388        0.05339185130964
C           -3.93501599172585        0.67339466923923       -0.12402877045812
C           -5.09142407450580        0.13023909311053       -0.86133588125485
C           -5.26217767756336       -1.32063979118142       -0.51894289368141
O           -6.28244293080910       -2.02882028071087       -1.01879088498549
C           -7.23615940506121       -1.41151299959808       -1.85043306584813
C           -4.38986322981100       -2.03467984574603        0.32409206978860
O           -4.72146920558586       -3.33986876011719        0.47886021621745
C           -3.94365669093311       -4.15012423685639        1.32884103927898
C           -3.29316581282845       -1.41984949754417        0.94817226457931
C           -3.12423014544483       -0.05929502991726        0.68747149418016
C           -2.38419565447981        2.34071044908281       -1.20978418421251
C           -1.38855530244785        1.24698316473242       -1.57950498856458
C           -0.29647686711627        1.15980806160647       -0.50797265427993
N            0.57849783655043        0.03101192944863       -0.72230852562141
C            1.96037631621222        0.17474511234517       -0.33011744045321
C            2.92024702541012       -0.40411536087503       -1.38748986686203
C            4.33575606163814       -0.16075226436898       -0.95621722634629
C            4.97596123563817        1.03303524350998       -1.25919107576096
C            6.26081832822441        1.28665785294374       -0.80757241278234
C            6.93675539337978        0.35016161822066       -0.03620828168157
O            8.17870514579916        0.49051932086211        0.46181524577267
C            8.89935686893378        1.67140335402682        0.19511872449038
C            6.29154861775428       -0.87948972789693        0.27679717327727
O            7.01763100235818       -1.73394385478357        1.02360411751644
C            6.47073118999945       -2.98453482888278        1.36780326250822
C            5.00437309264395       -1.10805324245536       -0.18581587735624
C            0.04010589792107       -1.29058198653924       -0.50168732300482
C           -3.96419359276749        3.14988562669902        0.62070484997903
C           -4.90172517460909        2.72509991821852        1.75213298136639
C           -3.04722744421090        4.26721913032692        1.11620153908098
H           -4.94158041305722        0.23650869515123       -1.94861798526391
H           -7.77102610102012       -0.61375180391699       -1.32601611384363
H           -7.94029325978898       -2.19573046358304       -2.12144787358469
H           -6.78044570095732       -1.00379113236979       -2.75735619900156
H           -3.94786798752133       -3.77647483634186        2.35730041057993
H           -4.41325102752326       -5.13142865971804        1.30183753805916
H           -2.91226335671599       -4.23408890569467        0.97144782177685
H           -2.63856710156462       -1.96837778886704        1.60310666644539
H           -6.00878464868697        0.69164678254181       -0.63965563150282
H           -3.08740942470640        2.50328704456118       -2.02829844983058
H           -1.83802367564287        3.26729713893869       -1.04056120937498
H           -1.90344807895489        0.29171950767574       -1.67994180112784
H           -0.91228882391032        1.47293257988082       -2.53302021655521
H           -2.43495601162549        1.43963095284907        2.10620211425512
H            0.33500875697737        2.05635247647754       -0.61582816755343
H            2.15815917888120       -0.32598197248857        0.63035665912194
H            2.18940537605328        1.23489337154993       -0.20686122728412
H            2.72111305914958        0.08552054043266       -2.34079462910694
H            2.73899076204780       -1.47250906091783       -1.50071151100766
H            4.47161274095816        1.77481756766994       -1.85924528506241
H            6.73196745922861        2.22208942933056       -1.06170320807092
H            8.39628025825155        2.54961075153708        0.61130387750946
H            9.05331437271578        1.81293943785474       -0.87867651113105
H            9.86293919107828        1.54190841425550        0.68424184536491
H            7.23779180577392       -3.48807157982339        1.95297965297195
H            5.56703423024629       -2.87350835234427        1.97548562774867
H            6.24315819718864       -3.58084471381516        0.47887541157125
H            4.50650167634728       -2.03698398347484        0.04414325243520
H            0.42514513510997       -1.97264660205458       -1.26126232780239
H           -1.04401226675865       -1.27595614396567       -0.57387013041641
H            0.31823609909783       -1.68820293235811        0.48377498751621
H           -4.57799077468783        3.53764030900683       -0.20094540440803
H           -4.34166732757986        2.44157793737759        2.63929870497718
H           -5.52628311025106        1.88434200970432        1.46244353042915
H           -5.55026593511663        3.55536023088113        2.01949190062088
H           -2.31389165241916        3.87849680531260        1.81796193424345
H           -2.52087895010129        4.75056899263774        0.29847961621393
H           -3.63826485833210        5.02586249546064        1.62260388746777
H           -0.31416717917712        0.71605711188043        1.51432924404257

          :  Hamiltonian                  GFN2-xTB          :
         :: total energy             -99.422760402232 Eh    ::
         :: gradient norm              0.002492938781 Eh/a0 ::
         :: HOMO-LUMO gap              1.125379226139 eV    ::
         :: SCC energy              -100.734434696123 Eh    ::
         :: -> dispersion             -0.074783527035 Eh    ::
         :: repulsion energy           1.310737438614 Eh    ::

    * Orbital Energies and Occupations

         #    Occupation            Energy/Eh            Energy/eV
      -------------------------------------------------------------
         1        2.0000           -0.8322463             -22.6466
       ...           ...                  ...                  ...
        78        1.9981           -0.5286209             -14.3845
        79        1.9979           -0.5272391             -14.3469
        80        1.9976           -0.5249058             -14.2834
        81        1.9970           -0.5215979             -14.1934
        82        1.9963           -0.5180334             -14.0964
        83        1.9952           -0.5138623             -13.9829
        84        1.9948           -0.5128758             -13.9561
        85        1.9917           -0.5053579             -13.7515
        86        1.9676           -0.4835727             -13.1587
        87        1.9405           -0.4736951             -12.8899
        88        1.9220           -0.4692645             -12.7693
        89        1.8113           -0.4543396             -12.3632
        90        1.7381           -0.4484941             -12.2041 (HOMO)
        91        0.6550           -0.4071372             -11.0788 (LUMO)
        92        0.0038           -0.3193973              -8.6912
        93        0.0017           -0.3068671              -8.3503
        94        0.0015           -0.3047969              -8.2939
        95        0.0000           -0.2380444              -6.4775
        96        0.0000           -0.1823511              -4.9620
        97                         -0.1029481              -2.8014
        98                         -0.1004096              -2.7323
        99                         -0.0924374              -2.5153
       100                         -0.0901691              -2.4536
       101                         -0.0843062              -2.2941
       ...                                ...                  ...
       171                          0.5861120              15.9489
      -------------------------------------------------------------
                  HL-Gap            0.0413569 Eh            1.1254 eV

     #   Z          covCN         q      C6AA      α(0)
     1   7 N        2.680    -0.219    25.789     7.542
     2   6 C        4.069     0.043    19.776     6.317
     3   6 C        4.160     0.008    20.351     6.407
     4   6 C        3.248    -0.020    27.461     8.485
     5   6 C        3.806    -0.069    21.824     6.650
     6   6 C        2.853     0.124    25.273     8.240
     7   8 O        1.707    -0.192    17.214     5.602
     8   6 C        3.644     0.019    20.602     6.524
     9   6 C        2.861     0.127    25.220     8.232
    10   8 O        1.706    -0.236    17.914     5.714
    11   6 C        3.643     0.028    20.451     6.501
    12   6 C        2.904    -0.075    29.882     8.963
    13   6 C        3.221    -0.021    27.782     8.569
    14   6 C        3.808    -0.064    21.715     6.633
    15   6 C        3.806    -0.070    21.834     6.652
    16   6 C        3.731     0.099    19.037     6.228
    17   7 N        2.729    -0.140    24.020     7.279
    18   6 C        3.753     0.004    20.573     6.468
    19   6 C        3.808    -0.073    21.880     6.659
    20   6 C        2.969     0.009    27.809     8.650
    21   6 C        2.922    -0.045    29.115     8.849
    22   6 C        2.913    -0.066    29.635     8.927
    23   6 C        2.864     0.134    25.067     8.207
    24   8 O        1.706    -0.218    17.624     5.668
    25   6 C        3.645     0.024    20.500     6.507
    26   6 C        2.862     0.134    25.062     8.206
    27   8 O        1.706    -0.221    17.671     5.676
    28   6 C        3.645     0.026    20.464     6.502
    29   6 C        2.920    -0.077    29.911     8.969
    30   6 C        3.699    -0.040    21.463     6.626
    31   6 C        3.850    -0.016    20.820     6.490
    32   6 C        3.756    -0.112    22.698     6.793
    33   6 C        3.756    -0.115    22.749     6.801
    34   1 H        0.923     0.088     1.898     2.155
    35   1 H        0.924     0.064     2.155     2.296
    36   1 H        0.925     0.093     1.847     2.126
    37   1 H        0.924     0.062     2.171     2.304
    38   1 H        0.924     0.054     2.274     2.358
    39   1 H        0.925     0.082     1.954     2.186
    40   1 H        0.924     0.049     2.327     2.386
    41   1 H        0.926     0.056     2.246     2.344
    42   1 H        0.923     0.088     1.900     2.156
    43   1 H        0.924     0.048     2.346     2.395
    44   1 H        0.925     0.061     2.190     2.314
    45   1 H        0.925     0.046     2.372     2.409
    46   1 H        0.925     0.056     2.242     2.342
    47   1 H        0.924     0.058     2.222     2.331
    48   1 H        0.923     0.051     2.302     2.373
    49   1 H        0.923     0.031     2.572     2.508
    50   1 H        0.924     0.048     2.343     2.394
    51   1 H        0.925     0.060     2.198     2.319
    52   1 H        0.925     0.054     2.266     2.354
    53   1 H        0.926     0.052     2.296     2.370
    54   1 H        0.926     0.060     2.204     2.321
    55   1 H        0.924     0.056     2.245     2.343
    56   1 H        0.924     0.058     2.227     2.334
    57   1 H        0.925     0.083     1.949     2.183
    58   1 H        0.925     0.082     1.958     2.188
    59   1 H        0.924     0.051     2.309     2.376
    60   1 H        0.924     0.055     2.260     2.351
    61   1 H        0.926     0.052     2.300     2.372
    62   1 H        0.924     0.056     2.242     2.342
    63   1 H        0.925     0.052     2.289     2.366
    64   1 H        0.923     0.032     2.552     2.498
    65   1 H        0.924     0.042     2.421     2.433
    66   1 H        0.925     0.041     2.430     2.438
    67   1 H        0.925     0.033     2.537     2.491
    68   1 H        0.925     0.053     2.288     2.365
    69   1 H        0.925     0.047     2.363     2.404
    70   1 H        0.925     0.042     2.417     2.431
    71   1 H        0.925     0.055     2.260     2.351
    72   1 H        0.860     0.156     1.362     1.828

Wiberg/Mayer (AO) data.
largest (>0.10) Wiberg bond orders for each atom

     #   Z sym  total        # sym  WBO       # sym  WBO       # sym  WBO
 ---------------------------------------------------------------------------
     1   7 N    3.082 --     2 C    1.034    16 C    0.982    72 H    0.946
     2   6 C    3.963 --     1 N    1.034    47 H    0.945    13 C    0.943
                             3 C    0.942
     3   6 C    3.968 --     4 C    0.990    14 C    0.972    31 C    0.960
                             2 C    0.942
     4   6 C    3.760 --    13 C    1.534     5 C    1.041     3 C    0.990
     5   6 C    3.982 --     4 C    1.041     6 C    1.028    42 H    0.915
                            34 H    0.908
     6   6 C    3.679 --     9 C    1.320     7 O    1.156     5 C    1.028
     7   8 O    2.276 --     6 C    1.156     8 C    0.974
     8   6 C    3.920 --    36 H    0.975     7 O    0.974    37 H    0.968
                            35 H    0.966
     9   6 C    3.900 --    12 C    1.322     6 C    1.320    10 O    1.087
    10   8 O    2.240 --     9 C    1.087    11 C    0.978
    11   6 C    3.930 --    10 O    0.978    39 H    0.976    40 H    0.974
                            38 H    0.974
    12   6 C    3.746 --     9 C    1.322    13 C    1.301    41 H    0.963
    13   6 C    3.936 --     4 C    1.534    12 C    1.301     2 C    0.943
    14   6 C    3.978 --    15 C    1.007     3 C    0.972    43 H    0.972
                            44 H    0.965
    15   6 C    3.980 --    14 C    1.007    16 C    0.981    46 H    0.974
                            45 H    0.967
    16   6 C    3.961 --    17 N    0.994     1 N    0.982    15 C    0.981
                            48 H    0.943
    17   7 N    3.122 --    30 C    1.014    18 C    1.008    16 C    0.994
    18   6 C    3.966 --    17 N    1.008    50 H    0.969    19 C    0.968
                            49 H    0.959
    19   6 C    3.977 --    20 C    1.015    52 H    0.970    51 H    0.970
                            18 C    0.968
    20   6 C    3.928 --    21 C    1.392    29 C    1.384    19 C    1.015
    21   6 C    3.931 --    22 C    1.425    20 C    1.392    53 H    0.967
    22   6 C    3.951 --    21 C    1.425    23 C    1.375    54 H    0.963
    23   6 C    3.875 --    22 C    1.375    26 C    1.213    24 O    1.113
    24   8 O    2.245 --    23 C    1.113    25 C    0.976
    25   6 C    3.926 --    57 H    0.977    24 O    0.976    55 H    0.972
                            56 H    0.972
    26   6 C    3.882 --    29 C    1.389    23 C    1.213    27 O    1.107
    27   8 O    2.247 --    26 C    1.107    28 C    0.978
    28   6 C    3.930 --    27 O    0.978    58 H    0.977    59 H    0.973
                            60 H    0.972
    29   6 C    3.953 --    26 C    1.389    20 C    1.384    61 H    0.962
    30   6 C    3.972 --    17 N    1.014    63 H    0.973    62 H    0.972
                            64 H    0.969
    31   6 C    3.976 --    32 C    1.007    33 C    1.007    65 H    0.962
                             3 C    0.960
    32   6 C    3.990 --    31 C    1.007    68 H    0.984    66 H    0.982
                            67 H    0.982
    33   6 C    3.987 --    31 C    1.007    69 H    0.984    71 H    0.981
                            70 H    0.981
    34   1 H    0.950 --     5 C    0.908
    35   1 H    0.989 --     8 C    0.966
    36   1 H    0.991 --     8 C    0.975
    37   1 H    0.989 --     8 C    0.968
    38   1 H    0.994 --    11 C    0.974
    39   1 H    0.992 --    11 C    0.976
    40   1 H    0.994 --    11 C    0.974
    41   1 H    0.995 --    12 C    0.963
    42   1 H    0.957 --     5 C    0.915
    43   1 H    0.996 --    14 C    0.972
    44   1 H    0.994 --    14 C    0.965
    45   1 H    0.997 --    15 C    0.967
    46   1 H    0.996 --    15 C    0.974
    47   1 H    0.989 --     2 C    0.945
    48   1 H    0.986 --    16 C    0.943
    49   1 H    0.985 --    18 C    0.959
    50   1 H    0.997 --    18 C    0.969
    51   1 H    0.993 --    19 C    0.970
    52   1 H    0.995 --    19 C    0.970
    53   1 H    0.996 --    21 C    0.967
    54   1 H    0.994 --    22 C    0.963
    55   1 H    0.990 --    25 C    0.972
    56   1 H    0.990 --    25 C    0.972
    57   1 H    0.992 --    25 C    0.977
    58   1 H    0.993 --    28 C    0.977
    59   1 H    0.991 --    28 C    0.973
    60   1 H    0.991 --    28 C    0.972
    61   1 H    0.996 --    29 C    0.962
    62   1 H    0.987 --    30 C    0.972
    63   1 H    0.997 --    30 C    0.973
    64   1 H    0.986 --    30 C    0.969
    65   1 H    0.995 --    31 C    0.962
    66   1 H    0.997 --    32 C    0.982
    67   1 H    0.998 --    32 C    0.982
    68   1 H    0.996 --    32 C    0.984
    69   1 H    0.996 --    33 C    0.984
    70   1 H    0.997 --    33 C    0.981
    71   1 H    0.994 --    33 C    0.981
    72   1 H    0.974 --     1 N    0.946
 ---------------------------------------------------------------------------

molecular dipole:
                 x           y           z       tot (Debye)
 q only:       -1.028       0.087      -0.497
   full:       -1.126      -0.061      -0.345       2.997

           -------------------------------------------------
          | TOTAL ENERGY              -99.422760402232 Eh   |
          | GRADIENT NORM               0.002492938781 Eh/α |
          | HOMO-LUMO GAP               1.125379226139 eV   |
           -------------------------------------------------

 * finished run on 2024/04/06 at 11:16:09.971
