   * xtb version 6.6.1 (8d0f1dd) compiled by 'conda@1efc2f54142f' on 2023-08-01
          program call               : xtb struc.xyz --opt loose --input .xc1 --gfn2

   ID    Z sym.   atoms
    1    6 C      1, 3, 5-7, 10, 11, 14
    2    7 N      2, 4, 9, 13
    3    8 O      8, 12
    4    1 H      15-25
constraining bond 15 17 to    3.2800000 Å, actual value:    1.7729540 Å

          :  Hamiltonian                  GFN2-xTB          :
 * total energy  :   -38.1925802 Eh     change       -0.6650680E-10 Eh
 * total energy  :   -40.2857732 Eh     change       -0.2093193E+01 Eh
 * total energy  :   -41.6350382 Eh     change       -0.1349265E+01 Eh
 * total energy  :   -42.0383598 Eh     change       -0.4033216E+00 Eh
 * total energy  :   -42.0685494 Eh     change       -0.3018954E-01 Eh
 * total energy  :   -42.0697759 Eh     change       -0.1226540E-02 Eh
 * total energy  :   -42.0713473 Eh     change       -0.1571394E-02 Eh
 * total energy  :   -42.0748326 Eh     change       -0.3485308E-02 Eh
 * total energy  :   -42.0770950 Eh     change       -0.2262369E-02 Eh
 * total energy  :   -42.0808256 Eh     change       -0.3730567E-02 Eh
 * total energy  :   -42.1909494 Eh     change       -0.5343327E-03 Eh
 * total energy  :   -42.1915240 Eh     change       -0.5746006E-03 Eh
 * total energy  :   -42.1916865 Eh     change       -0.1625373E-03 Eh
 * total energy  :   -42.1916279 Eh     change        0.5867300E-04 Eh
 * total energy  :   -42.1919106 Eh     change       -0.2827319E-03 Eh
 * total energy  :   -42.1919764 Eh     change       -0.6579175E-04 Eh
 * total energy  :   -42.1920710 Eh     change       -0.9463235E-04 Eh
 * total energy  :   -42.1921164 Eh     change       -0.4536935E-04 Eh
 * total energy  :   -42.1921361 Eh     change       -0.1972683E-04 Eh
   *** GEOMETRY OPTIMIZATION CONVERGED AFTER 37 ITERATIONS ***

 final structure:
================
25
 xtb: 6.6.1 (8d0f1dd)
C            3.28834201585183        0.92779584315169       -0.04376564990272
N            2.37869389892027       -0.04492315258228        0.00477174410070
C            2.58723094893862       -1.37416940555595        0.13215456618597
N            1.38732672564962       -2.04261426438489        0.13648695722429
C            0.39683379709554       -1.14460260144806        0.01287234633163
C            0.99021709994629        0.12942551207261       -0.04981575991069
C            0.19162423074802        1.26578215535172       -0.01847132189873
O            0.63568032598165        2.51141955174331        0.07885583613045
N           -1.15561898053805        1.06438651912969       -0.05253795035243
C           -2.06926568301845        2.19789237388157       -0.05926278382476
C           -1.78049234095540       -0.19033987394511       -0.08103326318654
O           -2.97210140691157       -0.28843614962029       -0.13664327930096
N           -0.94648722624531       -1.31238651566860       -0.02039142957240
C           -1.54409826945565       -2.63353145061512       -0.00983805587595
H            4.31298020244645        0.68607056909508        0.12712906759351
H            3.05436379627597        1.88536389410480       -0.45950217022607
H            1.59609747481424        2.52421140114871        0.24806881611808
H            3.54304038065233       -1.84226634157980        0.21522742670550
H           -1.49723456070822        3.11963027537322       -0.06713940025220
H           -2.70661214074993        2.14060334207529       -0.94130494827017
H           -2.70711504125488        2.15752018606276        0.82346159026513
H           -1.30745243395611       -3.15184498517672        0.91996513911503
H           -1.19147917758626       -3.21487892202622       -0.86208878678612
H           -2.62321468419224       -2.50871554744490       -0.08328212302490
H            1.29917256235127       -3.04315387154252        0.21725505051433

          :  Hamiltonian                  GFN2-xTB          :
         :: total energy             -42.192136115375 Eh    ::
         :: gradient norm              0.002592079138 Eh/a0 ::
         :: HOMO-LUMO gap              1.533264289968 eV    ::
         :: SCC energy               -42.718155349393 Eh    ::
         :: -> dispersion             -0.023072326384 Eh    ::
         :: repulsion energy           0.525886229217 Eh    ::

    * Orbital Energies and Occupations

         #    Occupation            Energy/Eh            Energy/eV
      -------------------------------------------------------------
         1        2.0000           -0.9015698             -24.5330
       ...           ...                  ...                  ...
        25        2.0000           -0.6700486             -18.2329
        26        2.0000           -0.6683644             -18.1871
        27        2.0000           -0.6574762             -17.8908
        28        2.0000           -0.6465605             -17.5938
        29        2.0000           -0.6391375             -17.3918
        30        1.9999           -0.6218933             -16.9226
        31        1.9999           -0.6158773             -16.7589
        32        1.9999           -0.6120998             -16.6561
        33        1.9998           -0.6087096             -16.5638
        34        1.9992           -0.5842831             -15.8992
        35        1.9987           -0.5762308             -15.6800
        36        1.9956           -0.5569314             -15.1549
        37        1.7024           -0.4878382             -13.2748 (HOMO)
        38        0.2802           -0.4314918             -11.7415 (LUMO)
        39        0.0207           -0.3880423             -10.5592
        40        0.0037           -0.3607924              -9.8177
        41        0.0001           -0.2931359              -7.9766
        42        0.0000           -0.2052699              -5.5857
        43                         -0.1718834              -4.6772
        44                         -0.1443857              -3.9289
        45                         -0.1303582              -3.5472
        46                         -0.1096404              -2.9835
        47                         -0.0675959              -1.8394
        48                         -0.0353409              -0.9617
       ...                                ...                  ...
        67                          0.5371267              14.6160
      -------------------------------------------------------------
                  HL-Gap            0.0563464 Eh            1.5333 eV

     #   Z          covCN         q      C6AA      α(0)
     1   6 C        2.788    -0.130    31.290     9.163
     2   7 N        2.794     0.103    19.471     6.554
     3   6 C        3.036    -0.003    28.069     8.690
     4   7 N        2.773    -0.063    22.452     7.037
     5   6 C        3.016     0.105    25.669     8.311
     6   6 C        3.105    -0.037    28.779     8.790
     7   6 C        2.775     0.202    23.707     7.975
     8   8 O        1.659    -0.328    19.498     5.961
     9   7 N        2.746    -0.049    22.183     6.995
    10   6 C        3.706    -0.070    21.987     6.703
    11   6 C        2.727     0.312    21.693     7.625
    12   8 O        0.859    -0.356    20.811     6.116
    13   7 N        2.737    -0.058    22.366     7.024
    14   6 C        3.698    -0.072    22.045     6.716
    15   1 H        0.927     0.082     1.955     2.186
    16   1 H        0.927     0.071     2.078     2.254
    17   1 H        0.804     0.352     0.583     1.199
    18   1 H        0.927     0.105     1.741     2.063
    19   1 H        0.925     0.109     1.701     2.040
    20   1 H        0.925     0.107     1.721     2.052
    21   1 H        0.925     0.104     1.748     2.067
    22   1 H        0.924     0.084     1.941     2.178
    23   1 H        0.924     0.084     1.937     2.176
    24   1 H        0.925     0.125     1.576     1.963
    25   1 H        0.860     0.219     1.014     1.577

Wiberg/Mayer (AO) data.
largest (>0.10) Wiberg bond orders for each atom

     #   Z sym  total        # sym  WBO       # sym  WBO       # sym  WBO
 ---------------------------------------------------------------------------
     1   6 C    3.565 --     2 N    1.305    15 H    0.971    16 H    0.955
                             3 C    0.177
     2   7 N    3.720 --     1 C    1.305     3 C    1.250     6 C    1.070
     3   6 C    3.710 --     2 N    1.250     4 N    1.176    18 H    0.960
                             1 C    0.177
     4   7 N    3.555 --     5 C    1.259     3 C    1.176    25 H    0.924
     5   6 C    3.866 --     4 N    1.259     6 C    1.235    13 N    1.178
     6   6 C    3.906 --     7 C    1.295     5 C    1.235     2 N    1.070
     7   6 C    3.781 --     6 C    1.295     9 N    1.202     8 O    1.160
     8   8 O    2.179 --     7 C    1.160    17 H    0.825
     9   7 N    3.536 --     7 C    1.202    11 C    1.069    10 C    0.969
                            12 O    0.126
    10   6 C    3.916 --    19 H    0.971     9 N    0.969    21 H    0.964
                            20 H    0.963
    11   6 C    3.946 --    12 O    1.716    13 N    1.071     9 N    1.069
    12   8 O    2.069 --    11 C    1.716    13 N    0.135     9 N    0.126
    13   7 N    3.515 --     5 C    1.178    11 C    1.071    14 C    0.974
                            12 O    0.135
    14   6 C    3.926 --    13 N    0.974    23 H    0.971    22 H    0.970
                            24 H    0.965
    15   1 H    0.992 --     1 C    0.971
    16   1 H    0.994 --     1 C    0.955
    17   1 H    0.875 --     8 O    0.825
    18   1 H    0.988 --     3 C    0.960
    19   1 H    0.987 --    10 C    0.971
    20   1 H    0.983 --    10 C    0.963
    21   1 H    0.984 --    10 C    0.964
    22   1 H    0.989 --    14 C    0.970
    23   1 H    0.989 --    14 C    0.971
    24   1 H    0.984 --    14 C    0.965
    25   1 H    0.951 --     4 N    0.924
 ---------------------------------------------------------------------------

molecular dipole:
                 x           y           z       tot (Debye)
 q only:        1.780      -0.782       0.208
   full:        2.261      -1.070       0.222       6.384

           -------------------------------------------------
          | TOTAL ENERGY              -42.192136115375 Eh   |
          | GRADIENT NORM               0.002592079138 Eh/α |
          | HOMO-LUMO GAP               1.533264289968 eV   |
           -------------------------------------------------

 * finished run on 2024/06/05 at 19:58:08.055
