   * xtb version 6.6.1 (8d0f1dd) compiled by 'conda@1efc2f54142f' on 2023-08-01
          program call               : xtb struc.xyz --opt loose --input .xc1 --gfn2

   ID    Z sym.   atoms
    1    6 C      1, 3, 5-7, 10, 11, 14
    2    7 N      2, 4, 9, 13
    3    8 O      8, 12
    4    1 H      15-25
constraining bond 6 8 to    4.7600000 Å, actual value:    2.3687222 Å

          :  Hamiltonian                  GFN2-xTB          :
 * total energy  :    -1.4076711 Eh     change       -0.6650680E-10 Eh
 * total energy  :   -21.0424215 Eh     change       -0.1963475E+02 Eh
 * total energy  :   -32.4788960 Eh     change       -0.1143647E+02 Eh
 * total energy  :   -38.8186017 Eh     change       -0.6339706E+01 Eh
 * total energy  :   -41.0895731 Eh     change       -0.2270971E+01 Eh
 * total energy  :   -41.3613732 Eh     change       -0.2718000E+00 Eh
 * total energy  :   -41.4420289 Eh     change       -0.8065577E-01 Eh
 * total energy  :   -41.4953312 Eh     change       -0.5330231E-01 Eh
 * total energy  :   -41.5136005 Eh     change       -0.1826922E-01 Eh
 * total energy  :   -41.5791549 Eh     change       -0.6555447E-01 Eh
 * total energy  :   -42.1572652 Eh     change       -0.2133105E-04 Eh
 * total energy  :   -42.1575221 Eh     change       -0.2569022E-03 Eh
 * total energy  :   -42.1576088 Eh     change       -0.8671313E-04 Eh
 * total energy  :   -42.1576722 Eh     change       -0.6347207E-04 Eh
 * total energy  :   -42.1577736 Eh     change       -0.1013546E-03 Eh
 * total energy  :   -42.1578762 Eh     change       -0.1025704E-03 Eh
 * total energy  :   -42.1579378 Eh     change       -0.6167342E-04 Eh
 * total energy  :   -42.1579878 Eh     change       -0.4999443E-04 Eh
 * total energy  :   -42.1580237 Eh     change       -0.3588750E-04 Eh
   *** GEOMETRY OPTIMIZATION CONVERGED AFTER 72 ITERATIONS ***

 final structure:
================
25
 xtb: 6.6.1 (8d0f1dd)
C            3.41553962422498        0.88089402306402        0.37429377307959
N            2.41067361427037       -0.13183130833672        0.20680302032740
C            2.59686658775655       -1.44645022457631        0.12560690081410
N            1.40351502610755       -2.07657719711715       -0.02645350715228
C            0.43039822883773       -1.12744498383959       -0.04174716276711
C            1.06238411432708        0.11148801037744        0.11024249332159
C            0.30623255000509        1.31150770473482        0.11895156268218
O           -2.91572749915050        2.60176010058614       -0.67027586609453
N           -1.02174610620551        1.14595042769284        0.00341511097473
C           -1.90277157771055        2.35098477116218        0.23325565498666
C           -1.70890968775258       -0.07238875155877       -0.10879955087987
O           -2.89967946043640       -0.15509752631382       -0.14662916335724
N           -0.90032914242203       -1.23832280492449       -0.16958280595953
C           -1.55684875280913       -2.52477589081807       -0.30087618463472
H            3.87938576412712        0.80114894477461        1.35839071153481
H            4.18891090978711        0.78070724425927       -0.38688985854371
H            2.93414367738543        1.85266446250970        0.28341937710668
H            3.54304095313169       -1.94695425399382        0.17385469778812
H           -2.58037953538854        2.94156193020710       -1.51196104500505
H           -2.40980015474965        2.17235860826212        1.19116547524354
H           -1.19060032481480        3.18215258761848        0.33120373535250
H           -1.38656833837879       -3.13434262104964        0.58758729146805
H           -1.19665420102997       -3.04570305010463       -1.18841451729869
H           -2.62565865954834       -2.33868581482751       -0.40306001332004
H            1.28501390452961       -3.07636584619585       -0.11232851176235

          :  Hamiltonian                  GFN2-xTB          :
         :: total energy             -42.158023728794 Eh    ::
         :: gradient norm              0.003608548380 Eh/a0 ::
         :: HOMO-LUMO gap              1.700051582623 eV    ::
         :: SCC energy               -42.658333808019 Eh    ::
         :: -> dispersion             -0.022070957218 Eh    ::
         :: repulsion energy           0.500190992201 Eh    ::

    * Orbital Energies and Occupations

         #    Occupation            Energy/Eh            Energy/eV
      -------------------------------------------------------------
         1        2.0000           -0.9031790             -24.5768
       ...           ...                  ...                  ...
        25        2.0000           -0.6650055             -18.0957
        26        2.0000           -0.6591923             -17.9375
        27        2.0000           -0.6520596             -17.7434
        28        1.9999           -0.6326631             -17.2156
        29        1.9999           -0.6270713             -17.0635
        30        1.9998           -0.6211166             -16.9014
        31        1.9998           -0.6168913             -16.7865
        32        1.9994           -0.6021811             -16.3862
        33        1.9976           -0.5800587             -15.7842
        34        1.9974           -0.5788981             -15.7526
        35        1.9866           -0.5528690             -15.0443
        36        1.9858           -0.5518810             -15.0174
        37        1.7593           -0.5051519             -13.7459 (HOMO)
        38        0.2476           -0.4426761             -12.0458 (LUMO)
        39        0.0241           -0.4038822             -10.9902
        40        0.0029           -0.3699539             -10.0670
        41        0.0000           -0.2866101              -7.7991
        42        0.0000           -0.2100827              -5.7166
        43                         -0.1914067              -5.2084
        44                         -0.1433988              -3.9021
        45                         -0.1343956              -3.6571
        46                         -0.0742181              -2.0196
        47                         -0.0482159              -1.3120
        48                         -0.0441878              -1.2024
       ...                                ...                  ...
        67                          0.5477259              14.9044
      -------------------------------------------------------------
                  HL-Gap            0.0624757 Eh            1.7001 eV

     #   Z          covCN         q      C6AA      α(0)
     1   6 C        3.692    -0.090    22.404     6.773
     2   7 N        2.825     0.070    20.026     6.646
     3   6 C        3.056     0.049    26.851     8.498
     4   7 N        2.785    -0.064    22.478     7.042
     5   6 C        3.040     0.116    25.417     8.269
     6   6 C        3.118     0.021    27.376     8.570
     7   6 C        1.916    -0.120    34.439     9.477
     8   8 O        1.657    -0.373    20.343     6.089
     9   7 N        2.742    -0.044    22.095     6.981
    10   6 C        3.618     0.130    18.897     6.270
    11   6 C        2.715     0.318    21.603     7.608
    12   8 O        0.859    -0.339    20.506     6.071
    13   7 N        2.737    -0.053    22.268     7.009
    14   6 C        3.697    -0.070    22.008     6.710
    15   1 H        0.924     0.106     1.733     2.059
    16   1 H        0.925     0.104     1.751     2.069
    17   1 H        0.925     0.121     1.601     1.979
    18   1 H        0.926     0.117     1.641     2.003
    19   1 H        0.805     0.316     0.674     1.289
    20   1 H        0.923     0.100     1.784     2.089
    21   1 H        0.923     0.078     1.999     2.211
    22   1 H        0.924     0.080     1.976     2.198
    23   1 H        0.924     0.080     1.982     2.201
    24   1 H        0.925     0.125     1.576     1.963
    25   1 H        0.860     0.223     0.995     1.563

Wiberg/Mayer (AO) data.
largest (>0.10) Wiberg bond orders for each atom

     #   Z sym  total        # sym  WBO       # sym  WBO       # sym  WBO
 ---------------------------------------------------------------------------
     1   6 C    3.925 --     2 N    0.989    17 H    0.970    16 H    0.963
                            15 H    0.959
     2   7 N    3.644 --     3 C    1.381     6 C    1.141     1 C    0.989
     3   6 C    3.801 --     2 N    1.381     4 N    1.255    18 H    0.955
     4   7 N    3.583 --     3 C    1.255     5 C    1.201    25 H    0.920
     5   6 C    3.906 --     6 C    1.282    13 N    1.233     4 N    1.201
     6   6 C    3.897 --     5 C    1.282     7 C    1.230     2 N    1.141
     7   6 C    2.770 --     9 N    1.356     6 C    1.230
     8   8 O    2.036 --    10 C    1.068    19 H    0.884
     9   7 N    3.581 --     7 C    1.356    11 C    1.071    10 C    0.903
                            12 O    0.116
    10   6 C    3.918 --     8 O    1.068    21 H    0.957    20 H    0.949
                             9 N    0.903
    11   6 C    3.937 --    12 O    1.741     9 N    1.071    13 N    1.031
    12   8 O    2.077 --    11 C    1.741    13 N    0.133     9 N    0.116
    13   7 N    3.553 --     5 C    1.233    11 C    1.031    14 C    0.975
                            12 O    0.133
    14   6 C    3.927 --    13 N    0.975    23 H    0.971    22 H    0.970
                            24 H    0.964
    15   1 H    0.984 --     1 C    0.959
    16   1 H    0.986 --     1 C    0.963
    17   1 H    0.985 --     1 C    0.970
    18   1 H    0.985 --     3 C    0.955
    19   1 H    0.899 --     8 O    0.884
    20   1 H    0.985 --    10 C    0.949
    21   1 H    0.989 --    10 C    0.957
    22   1 H    0.991 --    14 C    0.970
    23   1 H    0.991 --    14 C    0.971
    24   1 H    0.984 --    14 C    0.964
    25   1 H    0.949 --     4 N    0.920
 ---------------------------------------------------------------------------

molecular dipole:
                 x           y           z       tot (Debye)
 q only:        3.090      -1.264      -0.001
   full:        3.425      -2.019      -0.132      10.111

           -------------------------------------------------
          | TOTAL ENERGY              -42.158023728794 Eh   |
          | GRADIENT NORM               0.003608548380 Eh/α |
          | HOMO-LUMO GAP               1.700051582623 eV   |
           -------------------------------------------------

 * finished run on 2024/06/05 at 20:00:13.469
