   * xtb version 6.6.1 (8d0f1dd) compiled by 'conda@1efc2f54142f' on 2023-08-01
          program call               : xtb xtbopt.xyz --opt crude --input .xc2 --gfn2

   ID    Z sym.   atoms
    1    6 C      1, 3, 5-7, 10, 11, 14
    2    7 N      2, 4, 9, 13
    3    8 O      8, 12
    4    1 H      15-25
########################################################################
[WARNING] Please study the warnings concerning your input carefully
-1- readin_getIntValue: could not parse ''
########################################################################

          :  Hamiltonian                  GFN2-xTB          :
 * total energy  :   -42.1580604 Eh     change       -0.7247536E-12 Eh
 * total energy  :   -42.1600215 Eh     change       -0.1961077E-02 Eh
 * total energy  :   -42.1607372 Eh     change       -0.7157017E-03 Eh
 * total energy  :   -42.1611487 Eh     change       -0.4115328E-03 Eh
   *** GEOMETRY OPTIMIZATION CONVERGED AFTER 4 ITERATIONS ***

 final structure:
================
25
 xtb: 6.6.1 (8d0f1dd)
C            3.38741682565188        0.90107614031294        0.36259272670903
N            2.38446266465565       -0.11101414505989        0.17985372332813
C            2.57928926353694       -1.42283588034383        0.09350436752608
N            1.38922194263234       -2.05915423488789       -0.05257896705523
C            0.41132081986187       -1.11623098623976       -0.05353961080937
C            1.03046869145124        0.13072373237049        0.09293329283845
C            0.29742892224986        1.32499783366998        0.16703357435443
O           -2.76520171161268        2.50039053951877       -0.77599134659735
N           -1.02211543061468        1.13179434143572        0.09568747607280
C           -1.88281251210261        2.33149865371909        0.26074721400890
C           -1.72194609386762       -0.07695893062061       -0.04243473986036
O           -2.91306164772159       -0.15488654697182       -0.06090894477576
N           -0.91873103281578       -1.23963942145903       -0.15408262632463
C           -1.56962429976367       -2.52650609435400       -0.30120272147471
H            3.84457883440641        0.81123967735989        1.34898661456502
H            4.16581147324486        0.80824926767021       -0.39432157850282
H            2.90687949258197        1.87362464495115        0.27915870142932
H            3.52970022550709       -1.91567928972401        0.13706867056343
H           -2.33766556019255        2.85928295503048       -1.56709714701449
H           -2.48253796139342        2.18521960704424        1.16952137289229
H           -1.18556249764182        3.16663496213516        0.39793737601750
H           -1.38482724742512       -3.15086438132954        0.57387398455029
H           -1.21629072399503       -3.02829603601929       -1.20230360048475
H           -2.64029495405411       -2.34480644077878       -0.38799702407866
H            1.27452403151393       -3.05962142583732       -0.13526916997262

          :  Hamiltonian                  GFN2-xTB          :
         :: total energy             -42.161148688705 Eh    ::
         :: gradient norm              0.006357753138 Eh/a0 ::
         :: HOMO-LUMO gap              1.751204462226 eV    ::
         :: SCC energy               -42.668657757668 Eh    ::
         :: -> dispersion             -0.022213981654 Eh    ::
         :: repulsion energy           0.507412062603 Eh    ::

    * Orbital Energies and Occupations

         #    Occupation            Energy/Eh            Energy/eV
      -------------------------------------------------------------
         1        2.0000           -0.9037441             -24.5921
       ...           ...                  ...                  ...
        25        2.0000           -0.6668842             -18.1468
        26        2.0000           -0.6589760             -17.9317
        27        2.0000           -0.6529426             -17.7675
        28        1.9999           -0.6327577             -17.2182
        29        1.9999           -0.6281075             -17.0917
        30        1.9998           -0.6216632             -16.9163
        31        1.9998           -0.6172758             -16.7969
        32        1.9993           -0.6006144             -16.3435
        33        1.9976           -0.5808798             -15.8065
        34        1.9969           -0.5768006             -15.6955
        35        1.9872           -0.5543367             -15.0843
        36        1.9855           -0.5523650             -15.0306
        37        1.7725           -0.5069694             -13.7953 (HOMO)
        38        0.2361           -0.4426138             -12.0441 (LUMO)
        39        0.0230           -0.4039129             -10.9910
        40        0.0026           -0.3695442             -10.0558
        41        0.0000           -0.2839747              -7.7273
        42                         -0.2002172              -5.4482
        43                         -0.1907386              -5.1903
        44                         -0.1349919              -3.6733
        45                         -0.1222099              -3.3255
        46                         -0.0721230              -1.9626
        47                         -0.0454114              -1.2357
        48                         -0.0384682              -1.0468
       ...                                ...                  ...
        67                          0.5538178              15.0701
      -------------------------------------------------------------
                  HL-Gap            0.0643556 Eh            1.7512 eV

     #   Z          covCN         q      C6AA      α(0)
     1   6 C        3.692    -0.090    22.408     6.774
     2   7 N        2.828     0.067    20.069     6.654
     3   6 C        3.050     0.050    26.837     8.496
     4   7 N        2.783    -0.064    22.471     7.040
     5   6 C        3.047     0.115    25.420     8.269
     6   6 C        3.120     0.021    27.361     8.567
     7   6 C        1.921    -0.122    34.523     9.489
     8   8 O        1.657    -0.380    20.461     6.106
     9   7 N        2.759    -0.039    21.997     6.966
    10   6 C        3.631     0.133    18.798     6.242
    11   6 C        2.720     0.318    21.602     7.609
    12   8 O        0.859    -0.337    20.457     6.064
    13   7 N        2.738    -0.051    22.232     7.003
    14   6 C        3.696    -0.070    22.012     6.711
    15   1 H        0.924     0.106     1.734     2.059
    16   1 H        0.925     0.104     1.750     2.069
    17   1 H        0.925     0.122     1.600     1.978
    18   1 H        0.926     0.117     1.637     2.001
    19   1 H        0.805     0.316     0.674     1.290
    20   1 H        0.923     0.098     1.799     2.098
    21   1 H        0.924     0.076     2.020     2.223
    22   1 H        0.924     0.081     1.971     2.195
    23   1 H        0.924     0.081     1.973     2.197
    24   1 H        0.925     0.125     1.575     1.962
    25   1 H        0.860     0.224     0.993     1.561

Wiberg/Mayer (AO) data.
largest (>0.10) Wiberg bond orders for each atom

     #   Z sym  total        # sym  WBO       # sym  WBO       # sym  WBO
 ---------------------------------------------------------------------------
     1   6 C    3.925 --     2 N    0.989    17 H    0.969    16 H    0.964
                            15 H    0.958
     2   7 N    3.644 --     3 C    1.387     6 C    1.134     1 C    0.989
     3   6 C    3.806 --     2 N    1.387     4 N    1.254    18 H    0.955
     4   7 N    3.584 --     3 C    1.254     5 C    1.202    25 H    0.920
     5   6 C    3.907 --     6 C    1.278    13 N    1.236     4 N    1.202
     6   6 C    3.896 --     5 C    1.278     7 C    1.240     2 N    1.134
     7   6 C    2.784 --     9 N    1.358     6 C    1.240
     8   8 O    2.025 --    10 C    1.059    19 H    0.884
     9   7 N    3.591 --     7 C    1.358    11 C    1.065    10 C    0.916
                            12 O    0.116
    10   6 C    3.919 --     8 O    1.059    21 H    0.957    20 H    0.948
                             9 N    0.916
    11   6 C    3.938 --    12 O    1.743     9 N    1.065    13 N    1.033
    12   8 O    2.079 --    11 C    1.743    13 N    0.133     9 N    0.116
    13   7 N    3.557 --     5 C    1.236    11 C    1.033    14 C    0.975
                            12 O    0.133
    14   6 C    3.927 --    13 N    0.975    23 H    0.971    22 H    0.970
                            24 H    0.965
    15   1 H    0.984 --     1 C    0.958
    16   1 H    0.986 --     1 C    0.964
    17   1 H    0.985 --     1 C    0.969
    18   1 H    0.985 --     3 C    0.955
    19   1 H    0.899 --     8 O    0.884
    20   1 H    0.985 --    10 C    0.948
    21   1 H    0.990 --    10 C    0.957
    22   1 H    0.991 --    14 C    0.970
    23   1 H    0.991 --    14 C    0.971
    24   1 H    0.984 --    14 C    0.965
    25   1 H    0.949 --     4 N    0.920
 ---------------------------------------------------------------------------

molecular dipole:
                 x           y           z       tot (Debye)
 q only:        3.094      -1.275      -0.006
   full:        3.436      -2.011      -0.112      10.124

           -------------------------------------------------
          | TOTAL ENERGY              -42.161148688705 Eh   |
          | GRADIENT NORM               0.006357753138 Eh/α |
          | HOMO-LUMO GAP               1.751204462226 eV   |
           -------------------------------------------------

 * finished run on 2024/06/05 at 20:00:13.672
