   * xtb version 6.6.1 (8d0f1dd) compiled by 'conda@1efc2f54142f' on 2023-08-01
          program call               : xtb struc.xyz --opt loose --input .xc1 --gfn2

   ID    Z sym.   atoms
    1    6 C      1, 3, 5-7, 10, 11, 14
    2    7 N      2, 4, 9, 13
    3    8 O      8, 12
    4    1 H      15-25
constraining bond 7 10 to    5.0000000 Å, actual value:    2.4325910 Å

          :  Hamiltonian                  GFN2-xTB          :
 * total energy  :   -30.4783648 Eh     change       -0.6650680E-10 Eh
 * total energy  :   -34.7728922 Eh     change       -0.4294527E+01 Eh
 * total energy  :   -38.1957872 Eh     change       -0.3422895E+01 Eh
 * total energy  :   -40.3436248 Eh     change       -0.2147838E+01 Eh
 * total energy  :   -41.3804889 Eh     change       -0.1036864E+01 Eh
 * total energy  :   -41.6283501 Eh     change       -0.2478611E+00 Eh
 * total energy  :   -41.6708690 Eh     change       -0.4251888E-01 Eh
 * total energy  :   -41.6967511 Eh     change       -0.2588218E-01 Eh
 * total energy  :   -41.7135906 Eh     change       -0.1683945E-01 Eh
 * total energy  :   -41.7458066 Eh     change       -0.3221602E-01 Eh
 * total energy  :   -42.1784058 Eh     change       -0.1379581E-02 Eh
 * total energy  :   -42.1810580 Eh     change       -0.2652287E-02 Eh
 * total energy  :   -42.1816498 Eh     change       -0.5917180E-03 Eh
 * total energy  :   -42.1820650 Eh     change       -0.4152190E-03 Eh
 * total energy  :   -42.1826823 Eh     change       -0.6173118E-03 Eh
 * total energy  :   -42.1827966 Eh     change       -0.1143187E-03 Eh
 * total energy  :   -42.1830193 Eh     change       -0.2227087E-03 Eh
 * total energy  :   -42.1830837 Eh     change       -0.6434038E-04 Eh
 * total energy  :   -42.1831302 Eh     change       -0.4651590E-04 Eh
   *** GEOMETRY OPTIMIZATION CONVERGED AFTER 60 ITERATIONS ***

 final structure:
================
25
 xtb: 6.6.1 (8d0f1dd)
C            3.92762475843618        0.54735613831790        0.02474274350214
N            2.71080150110893       -0.21892646337804        0.00177106209611
C            2.59810040107118       -1.53987079241174        0.00190138307521
N            1.28928313546511       -1.88513100149937       -0.00114613373872
C            0.54573305610165       -0.73866645525270       -0.00210698136402
C            1.44525844061287        0.31780188575921       -0.00031787682734
C            0.98739530222176        1.69384917693925       -0.02326053842132
O            1.63528149708388        2.69680314925854       -0.04953852832703
N           -0.47512945719787        1.70543078222492       -0.01316236227454
C           -3.97287492855795        1.29373872796466        0.00799849390425
C           -1.30855026296585        0.72581456871370       -0.00239383767371
O           -2.63266438712965        0.60526156031238        0.01648906502572
N           -0.79554762540890       -0.62187286755366       -0.00553529159720
C           -1.60685302353936       -1.82539674952653       -0.01055323306323
H            4.39846348862938        0.47973366524036        1.00682446446471
H            4.62366486319436        0.17473096560390       -0.72552406728019
H            3.68853191562763        1.59081139889359       -0.17759622883051
H            3.41152593596740       -2.23778532852000        0.00207838659570
H           -3.85469591019132        2.37534628928572        0.00750032638179
H           -4.46354777230795        0.94470898874212       -0.89509101070609
H           -4.46652966913259        0.94414733709564        0.90884269671648
H           -1.40089955600202       -2.42125148299066        0.88026060052055
H           -1.40374481371751       -2.41174161710340       -0.90836075388412
H           -2.65543262353507       -1.54647103162644       -0.00693738747818
H            0.93523724827211       -2.83018230289175       -0.00571337291584

          :  Hamiltonian                  GFN2-xTB          :
         :: total energy             -42.183130179060 Eh    ::
         :: gradient norm              0.002567850774 Eh/a0 ::
         :: HOMO-LUMO gap              2.680368736796 eV    ::
         :: SCC energy               -42.691873517431 Eh    ::
         :: -> dispersion             -0.021677997396 Eh    ::
         :: repulsion energy           0.507730447384 Eh    ::

    * Orbital Energies and Occupations

         #    Occupation            Energy/Eh            Energy/eV
      -------------------------------------------------------------
         1        2.0000           -0.9029995             -24.5719
       ...           ...                  ...                  ...
        25        2.0000           -0.6669226             -18.1479
        26        2.0000           -0.6572162             -17.8838
        27        2.0000           -0.6451256             -17.5548
        28        1.9999           -0.6312488             -17.1772
        29        1.9999           -0.6291753             -17.1207
        30        1.9999           -0.6244722             -16.9928
        31        1.9997           -0.6117579             -16.6468
        32        1.9997           -0.6088810             -16.5685
        33        1.9990           -0.5921637             -16.1136
        34        1.9925           -0.5600939             -15.2409
        35        1.9886           -0.5533965             -15.0587
        36        1.9805           -0.5449168             -14.8279
        37        1.9264           -0.5234102             -14.2427 (HOMO)
        38        0.0988           -0.4249085             -11.5623 (LUMO)
        39        0.0112           -0.3896637             -10.6033
        40        0.0041           -0.3735815             -10.1657
        41        0.0000           -0.2719389              -7.3998
        42        0.0000           -0.2712952              -7.3823
        43                         -0.1904992              -5.1837
        44                         -0.1732575              -4.7146
        45                         -0.1534702              -4.1761
        46                         -0.1069587              -2.9105
        47                         -0.0533833              -1.4526
        48                         -0.0372045              -1.0124
       ...                                ...                  ...
        67                          0.5954509              16.2030
      -------------------------------------------------------------
                  HL-Gap            0.0985017 Eh            2.6804 eV

     #   Z          covCN         q      C6AA      α(0)
     1   6 C        3.692    -0.092    22.449     6.780
     2   7 N        2.833     0.080    19.854     6.618
     3   6 C        3.049     0.050    26.838     8.496
     4   7 N        2.798    -0.066    22.511     7.047
     5   6 C        3.043     0.118    25.361     8.260
     6   6 C        3.116    -0.020    28.338     8.720
     7   6 C        2.752     0.296    21.980     7.677
     8   8 O        0.857    -0.312    20.000     5.996
     9   7 N        1.833    -0.285    28.234     7.874
    10   6 C        3.607     0.014    20.880     6.602
    11   6 C        2.705     0.309    21.750     7.633
    12   8 O        1.692    -0.249    18.121     5.747
    13   7 N        2.741    -0.058    22.362     7.023
    14   6 C        3.697    -0.072    22.054     6.717
    15   1 H        0.924     0.108     1.714     2.048
    16   1 H        0.925     0.104     1.753     2.071
    17   1 H        0.925     0.134     1.502     1.917
    18   1 H        0.926     0.121     1.603     1.980
    19   1 H        0.925     0.102     1.763     2.077
    20   1 H        0.925     0.109     1.703     2.041
    21   1 H        0.925     0.110     1.695     2.036
    22   1 H        0.924     0.079     1.992     2.207
    23   1 H        0.924     0.079     1.991     2.207
    24   1 H        0.925     0.115     1.656     2.012
    25   1 H        0.860     0.225     0.985     1.555

Wiberg/Mayer (AO) data.
largest (>0.10) Wiberg bond orders for each atom

     #   Z sym  total        # sym  WBO       # sym  WBO       # sym  WBO
 ---------------------------------------------------------------------------
     1   6 C    3.917 --     2 N    0.986    16 H    0.965    17 H    0.962
                            15 H    0.956
     2   7 N    3.681 --     3 C    1.395     6 C    1.158     1 C    0.986
     3   6 C    3.854 --     2 N    1.395     4 N    1.267    18 H    0.953
     4   7 N    3.579 --     3 C    1.267     5 C    1.185    25 H    0.920
     5   6 C    3.949 --     6 C    1.356    13 N    1.223     4 N    1.185
     6   6 C    3.904 --     5 C    1.356     2 N    1.158     7 C    1.062
     7   6 C    3.937 --     8 O    1.771     6 C    1.062     9 N    1.019
     8   8 O    2.095 --     7 C    1.771     9 N    0.118
     9   7 N    3.033 --    11 C    1.592     7 C    1.019    12 O    0.135
                             8 O    0.118
    10   6 C    3.852 --    19 H    0.980    20 H    0.971    21 H    0.971
                            12 O    0.881
    11   6 C    3.924 --     9 N    1.592    12 O    1.191    13 N    1.008
    12   8 O    2.324 --    11 C    1.191    10 C    0.881     9 N    0.135
    13   7 N    3.544 --     5 C    1.223    11 C    1.008    14 C    0.978
    14   6 C    3.936 --    13 N    0.978    22 H    0.971    23 H    0.971
                            24 H    0.967
    15   1 H    0.985 --     1 C    0.956
    16   1 H    0.987 --     1 C    0.965
    17   1 H    0.982 --     1 C    0.962
    18   1 H    0.984 --     3 C    0.953
    19   1 H    0.989 --    10 C    0.980
    20   1 H    0.986 --    10 C    0.971
    21   1 H    0.985 --    10 C    0.971
    22   1 H    0.991 --    14 C    0.971
    23   1 H    0.991 --    14 C    0.971
    24   1 H    0.986 --    14 C    0.967
    25   1 H    0.949 --     4 N    0.920
 ---------------------------------------------------------------------------

molecular dipole:
                 x           y           z       tot (Debye)
 q only:        0.724      -2.674       0.029
   full:        0.722      -3.332       0.036       8.666

           -------------------------------------------------
          | TOTAL ENERGY              -42.183130179060 Eh   |
          | GRADIENT NORM               0.002567850774 Eh/α |
          | HOMO-LUMO GAP               2.680368736796 eV   |
           -------------------------------------------------

 * finished run on 2024/06/05 at 19:57:59.286
