   * xtb version 6.6.1 (8d0f1dd) compiled by 'conda@1efc2f54142f' on 2023-08-01
          program call               : xtb xtbopt.xyz --opt crude --input .xc2 --gfn2

   ID    Z sym.   atoms
    1    6 C      1, 3, 5-7, 10, 11, 14
    2    7 N      2, 4, 9, 13
    3    8 O      8, 12
    4    1 H      15-25

          :  Hamiltonian                  GFN2-xTB          :
 * total energy  :   -42.1080687 Eh     change       -0.5968559E-12 Eh
   *** GEOMETRY OPTIMIZATION CONVERGED AFTER 1 ITERATIONS ***

 final structure:
================
25
 xtb: 6.6.1 (8d0f1dd)
C            3.08736015134559        1.02747522868581        0.24464797249045
N            2.21066581076445        0.03029907390226        0.19072215275198
C            2.46583337935359       -1.29862168984310        0.20654282002866
N            1.29698489421988       -1.99241229910524        0.13417336548793
C            0.27464958618635       -1.09903727403607        0.07386635557690
C            0.82769491844649        0.17034247732621        0.10762121119540
C            0.01217416448005        1.36313772244331        0.06975662734758
O            0.41782411215870        2.49999608125885        0.09263674510546
N           -1.34562649366203        1.04202394866901        0.00471451304562
C           -2.29449817033118        2.14687540364875       -0.01757099165370
C           -1.92159996336335       -0.21401990950086       -0.04166532180485
O           -3.10748951829260       -0.37688261053352       -0.10506251263373
N           -1.04680133269486       -1.32257462123196       -0.01061526467712
C           -1.60391147268207       -2.65930926656226       -0.05747525491459
H            4.13427525111849        0.80585894914005        0.31901481023297
H            5.24297977006941        2.10683991207490       -1.53470652609554
H            2.71862890322727        2.03698879243604        0.22201757869824
H            3.43951082625957       -1.73776286588563        0.27105781713556
H           -1.73159068365573        3.07730429935265       -0.01184213061751
H           -2.91578486687424        2.08310941225992       -0.91081080745939
H           -2.94458776736352        2.09322701720346        0.85604756148960
H           -1.33171715151456       -3.21977766783817        0.83729961114880
H           -1.26083721137349       -3.18487206838504       -0.94928687491005
H           -2.68849519494674       -2.56114206177187       -0.09888718559308
H            1.22478957322447       -2.99882744210750        0.13897534652438

          :  Hamiltonian                  GFN2-xTB          :
         :: total energy             -42.108068701623 Eh    ::
         :: gradient norm              0.003092875896 Eh/a0 ::
         :: HOMO-LUMO gap              0.336157202576 eV    ::
         :: SCC energy               -42.631592274217 Eh    ::
         :: -> dispersion             -0.022742696453 Eh    ::
         :: repulsion energy           0.523430602889 Eh    ::

    * Orbital Energies and Occupations

         #    Occupation            Energy/Eh            Energy/eV
      -------------------------------------------------------------
         1        2.0000           -0.9116599             -24.8075
       ...           ...                  ...                  ...
        25        1.9999           -0.6685632             -18.1925
        26        1.9999           -0.6682362             -18.1836
        27        1.9999           -0.6590015             -17.9323
        28        1.9995           -0.6374167             -17.3450
        29        1.9994           -0.6329040             -17.2222
        30        1.9991           -0.6274879             -17.0748
        31        1.9986           -0.6197743             -16.8649
        32        1.9952           -0.6007111             -16.3462
        33        1.9845           -0.5819392             -15.8354
        34        1.9553           -0.5649251             -15.3724
        35        1.9493           -0.5628892             -15.3170
        36        1.9437           -0.5611755             -15.2704
        37        1.2746           -0.5140225             -13.9873 (HOMO)
        38        0.8922           -0.5016690             -13.6511 (LUMO)
        39        0.0054           -0.4115024             -11.1976
        40        0.0030           -0.4023500             -10.9485
        41        0.0004           -0.3689480             -10.0396
        42        0.0000           -0.2871812              -7.8146
        43                         -0.2074193              -5.6442
        44                         -0.1864253              -5.0729
        45                         -0.1447489              -3.9388
        46                         -0.1160817              -3.1587
        47                         -0.0823918              -2.2420
        48                         -0.0508718              -1.3843
       ...                                ...                  ...
        67                          0.5549237              15.1002
      -------------------------------------------------------------
                  HL-Gap            0.0123535 Eh            0.3362 eV

     #   Z          covCN         q      C6AA      α(0)
     1   6 C        2.790    -0.069    29.710     8.929
     2   7 N        2.810     0.130    19.030     6.479
     3   6 C        3.037     0.026    27.396     8.585
     4   7 N        2.781    -0.058    22.353     7.022
     5   6 C        3.023     0.120    25.349     8.259
     6   6 C        3.108    -0.038    28.790     8.791
     7   6 C        2.764     0.275    22.350     7.742
     8   8 O        0.858    -0.355    20.811     6.116
     9   7 N        2.746    -0.081    22.813     7.094
    10   6 C        3.710    -0.062    21.841     6.679
    11   6 C        2.728     0.318    21.591     7.607
    12   8 O        0.860    -0.349    20.690     6.099
    13   7 N        2.739    -0.053    22.263     7.008
    14   6 C        3.696    -0.073    22.074     6.721
    15   1 H        0.926     0.109     1.704     2.041
    16   1 H        0.000     0.047     5.881     4.434
    17   1 H        0.926     0.140     1.461     1.890
    18   1 H        0.927     0.122     1.598     1.977
    19   1 H        0.925     0.116     1.642     2.004
    20   1 H        0.925     0.104     1.746     2.067
    21   1 H        0.924     0.103     1.758     2.074
    22   1 H        0.924     0.085     1.927     2.171
    23   1 H        0.924     0.086     1.916     2.164
    24   1 H        0.925     0.129     1.541     1.941
    25   1 H        0.860     0.228     0.972     1.545

Wiberg/Mayer (AO) data.
largest (>0.10) Wiberg bond orders for each atom

     #   Z sym  total        # sym  WBO       # sym  WBO       # sym  WBO
 ---------------------------------------------------------------------------
     1   6 C    3.406 --     2 N    1.330    15 H    0.963    17 H    0.956
     2   7 N    3.764 --     1 C    1.330     3 C    1.247     6 C    1.090
     3   6 C    3.643 --     2 N    1.247     4 N    1.241    18 H    0.955
     4   7 N    3.528 --     3 C    1.241     5 C    1.195    25 H    0.919
     5   6 C    3.938 --     6 C    1.349    13 N    1.217     4 N    1.195
     6   6 C    3.845 --     5 C    1.349     2 N    1.090     7 C    1.083
     7   6 C    3.959 --     8 O    1.688     9 N    1.093     6 C    1.083
     8   8 O    2.021 --     7 C    1.688     9 N    0.139
     9   7 N    3.530 --    11 C    1.126     7 C    1.093    10 C    0.972
                             8 O    0.139    12 O    0.133
    10   6 C    3.897 --     9 N    0.972    19 H    0.965    20 H    0.958
                            21 H    0.957
    11   6 C    3.958 --    12 O    1.706     9 N    1.126    13 N    1.035
    12   8 O    2.046 --    11 C    1.706     9 N    0.133    13 N    0.118
    13   7 N    3.531 --     5 C    1.217    11 C    1.035    14 C    0.975
                            12 O    0.118
    14   6 C    3.919 --    13 N    0.975    22 H    0.968    23 H    0.968
                            24 H    0.963
    15   1 H    0.987 --     1 C    0.963
    16   1 H    0.024
    17   1 H    0.980 --     1 C    0.956
    18   1 H    0.984 --     3 C    0.955
    19   1 H    0.983 --    10 C    0.965
    20   1 H    0.977 --    10 C    0.958
    21   1 H    0.976 --    10 C    0.957
    22   1 H    0.986 --    14 C    0.968
    23   1 H    0.986 --    14 C    0.968
    24   1 H    0.982 --    14 C    0.963
    25   1 H    0.947 --     4 N    0.919
 ---------------------------------------------------------------------------

molecular dipole:
                 x           y           z       tot (Debye)
 q only:        2.291      -1.967       0.099
   full:        2.574      -2.436       0.119       9.014

           -------------------------------------------------
          | TOTAL ENERGY              -42.108068701623 Eh   |
          | GRADIENT NORM               0.003092875896 Eh/α |
          | HOMO-LUMO GAP               0.336157202576 eV   |
           -------------------------------------------------

 * finished run on 2024/06/05 at 19:59:07.852
