   * xtb version 6.6.1 (8d0f1dd) compiled by 'conda@1efc2f54142f' on 2023-08-01
          program call               : xtb xtbopt.xyz --opt crude --input .xc2 --gfn2

   ID    Z sym.   atoms
    1    7 N      1, 17
    2    6 C      2-6, 8, 9, 11-16, 18-23, 25, 26, 28-33
    3    8 O      7, 10, 24, 27
    4    1 H      34-72

          :  Hamiltonian                  GFN2-xTB          :
 * total energy  :   -99.2798734 Eh     change       -0.1979572E-10 Eh
   *** GEOMETRY OPTIMIZATION CONVERGED AFTER 1 ITERATIONS ***

 final structure:
================
72
 xtb: 6.6.1 (8d0f1dd)
N           -1.90396927869751        2.84237506637733        2.16797225233687
C           -1.86338177824979        2.12141362238987        1.15022283612102
C           -3.02190694128488        1.86909724636111        0.22783439232572
C           -3.47294494007597        0.42274755977707        0.35893324530042
C           -4.40082033076576       -0.08031773170794       -0.54352209110750
C           -4.87313637845432       -1.38353028570675       -0.44588702015143
O           -5.79788474282469       -1.93357363540659       -1.27340705028205
C           -6.41390055301921       -1.30882924436010       -2.23659230906066
C           -4.39066296992315       -2.24153051528572        0.57937018408199
O           -4.88906169960354       -3.49070129529651        0.58531437154381
C           -4.49673181806928       -4.38468110533997        1.60390454265179
C           -3.46249526304090       -1.72809452715465        1.47534869871155
C           -3.01845529679498       -0.41608309332084        1.37121113903316
C           -2.50100016386386        2.13004470713995       -1.20808483354066
C           -1.54240110804592        1.05379137357163       -1.74643989714550
C           -0.20423676176207        1.07756258106936       -1.11763325099392
N            0.48232054066724        0.01247300360779       -0.72735224786506
C            1.85847562981619        0.13478649664336       -0.30488650182055
C            2.83739893277294       -0.31671530480220       -1.40548625773130
C            4.25465833329580       -0.12060859583368       -0.94356932851464
C            4.90254613374385        1.08714109954775       -1.14803639120517
C            6.20158415592930        1.28043830291973       -0.70485683400395
C            6.87976818662517        0.26754833881326       -0.04150285068801
O            8.13822878576744        0.34051173502596        0.42721978209682
C            8.87724396966629        1.52542648456459        0.23716394337615
C            6.22115616938285       -0.97466920724359        0.17783965612428
O            6.95219978660641       -1.90263853859380        0.82558518981410
C            6.40236718789991       -3.17730969117981        1.05811771971140
C            4.92118186793309       -1.14336110110808       -0.27289042655948
C           -0.08548170112486       -1.31471292799062       -0.75590173146831
C           -4.25026562155455        2.78630285723731        0.51156433976359
C           -4.86507910204309        2.49382994259781        1.87763163239820
C           -3.92534381839456        4.27247673553365        0.39784564320192
H           -4.75987475618422        0.55922158824136       -1.34346273704654
H           -6.24279135839773       -0.27293566834443       -2.49368173746516
H           -7.12431899990532       -1.91155334681511       -2.77388090870063
H           -5.09916292346073        1.60269672928958       -2.76217373661679
H           -4.74419275816979       -3.99551630781965        2.59496148275453
H           -5.06139150834314       -5.29686360910789        1.42257649066381
H           -3.42608615037662       -4.60414863518871        1.55069471688202
H           -3.08661901781850       -2.34348096988484        2.27646723189821
H           -2.32416173897264       -0.04705165784676        2.11035417650876
H           -3.36057052366424        2.17725816962500       -1.88394528939881
H           -2.00390199166973        3.09961183989522       -1.23404514309421
H           -2.01028608656191        0.07410016535895       -1.66944698860826
H           -1.40389333793152        1.27072759534864       -2.81355657486347
H           -0.94383887464570        1.61670579250606        0.78901121292490
H            0.32301986621741        2.02100258934311       -1.10762377526224
H            2.01384150899267       -0.47263681942534        0.59115706866766
H            2.06814330562094        1.17594860417586       -0.05173422053726
H            2.65358649302283        0.27626878495821       -2.30291566576363
H            2.66248643638877       -1.36658115807252       -1.64340141586835
H            4.40106166324425        1.88775216550656       -1.67013536096789
H            6.68222540654024        2.22746831878062       -0.88720719370815
H            8.40253424795740        2.37760300480255        0.73277681665224
H            9.01048037695111        1.74767873293673       -0.82575516931865
H            9.84850552830994        1.33926460357860        0.69141456138702
H            7.18237907273220       -3.74406430666971        1.56274348183676
H            5.52070580568664       -3.12225363281789        1.70484490616670
H            6.13994482742055       -3.67835372350074        0.12123417623021
H            4.41680630512771       -2.08450499388482       -0.11853898877202
H           -0.25681672871505       -1.64801941714946       -1.78155690639210
H           -1.03583870628184       -1.33458212057316       -0.21686251934808
H            0.59979345831756       -2.00843064081368       -0.27561300460253
H           -4.99454230272831        2.54745069301797       -0.25575023185253
H           -4.15568914455141        2.73138267767155        2.66441153290475
H           -5.15518676910466        1.44942927609391        1.96616479654554
H           -5.75203956692851        3.10652096270625        2.01531076812605
H           -3.14993315917130        4.54900441309408        1.10635101552441
H           -3.61039451339135        4.54053301573611       -0.60664975348684
H           -4.81696238754029        4.84934604626226        0.62899986434111
H           -1.05047481353199        2.96753040865247        2.70269731779186

          :  Hamiltonian                  GFN2-xTB          :
         :: total energy             -99.279873365977 Eh    ::
         :: gradient norm              0.002431151268 Eh/a0 ::
         :: HOMO-LUMO gap              0.621102518126 eV    ::
         :: SCC energy              -100.654094481928 Eh    ::
         :: -> dispersion             -0.078331120548 Eh    ::
         :: repulsion energy           1.372882974419 Eh    ::

    * Orbital Energies and Occupations

         #    Occupation            Energy/Eh            Energy/eV
      -------------------------------------------------------------
         1        2.0000           -0.8505539             -23.1447
       ...           ...                  ...                  ...
        78        1.9982           -0.5317468             -14.4696
        79        1.9976           -0.5274997             -14.3540
        80        1.9975           -0.5268313             -14.3358
        81        1.9968           -0.5227888             -14.2258
        82        1.9953           -0.5166555             -14.0589
        83        1.9948           -0.5152037             -14.0194
        84        1.9928           -0.5098973             -13.8750
        85        1.9920           -0.5081553             -13.8276
        86        1.9771           -0.4914850             -13.3740
        87        1.9636           -0.4840152             -13.1707
        88        1.9283           -0.4730013             -12.8710
        89        1.8327           -0.4587919             -12.4844
        90        1.3240           -0.4315298             -11.7425 (HOMO)
        91        0.6332           -0.4087047             -11.1214 (LUMO)
        92        0.3584           -0.3967907             -10.7972
        93        0.0135           -0.3418927              -9.3034
        94        0.0051           -0.3262693              -8.8782
        95        0.0037           -0.3211022              -8.7376
        96        0.0026           -0.3154813              -8.5847
        97        0.0022           -0.3131538              -8.5213
        98        0.0000           -0.2018511              -5.4926
        99        0.0000           -0.1907147              -5.1896
       100                         -0.1402799              -3.8172
       101                         -0.0738543              -2.0097
       ...                                ...                  ...
       171                          0.5732183              15.5981
      -------------------------------------------------------------
                  HL-Gap            0.0228251 Eh            0.6211 eV

     #   Z          covCN         q      C6AA      α(0)
     1   7 N        1.774    -0.264    27.681     7.791
     2   6 C        2.826     0.101    25.748     8.315
     3   6 C        3.908     0.008    20.384     6.417
     4   6 C        2.974     0.008    27.827     8.653
     5   6 C        2.920    -0.069    29.726     8.941
     6   6 C        2.868     0.103    25.711     8.312
     7   8 O        1.710    -0.096    15.776     5.363
     8   6 C        2.733     0.038    27.129     8.528
     9   6 C        2.861     0.135    25.046     8.203
    10   8 O        1.705    -0.230    17.818     5.699
    11   6 C        3.645     0.025    20.495     6.507
    12   6 C        2.914    -0.074    29.852     8.959
    13   6 C        2.921    -0.047    29.162     8.856
    14   6 C        3.812    -0.071    21.840     6.652
    15   6 C        3.802    -0.069    21.811     6.649
    16   6 C        2.843     0.012    27.737     8.631
    17   7 N        2.729     0.012    21.046     6.813
    18   6 C        3.755    -0.017    20.928     6.523
    19   6 C        3.808    -0.071    21.848     6.654
    20   6 C        2.969     0.000    28.020     8.683
    21   6 C        2.922    -0.048    29.196     8.861
    22   6 C        2.914    -0.067    29.667     8.932
    23   6 C        2.865     0.134    25.065     8.206
    24   8 O        1.706    -0.220    17.649     5.672
    25   6 C        3.645     0.024    20.501     6.507
    26   6 C        2.863     0.134    25.078     8.208
    27   8 O        1.706    -0.223    17.701     5.680
    28   6 C        3.645     0.027    20.460     6.501
    29   6 C        2.919    -0.079    29.983     8.979
    30   6 C        3.700    -0.070    22.007     6.709
    31   6 C        3.853    -0.009    20.700     6.471
    32   6 C        3.756    -0.118    22.823     6.812
    33   6 C        3.755    -0.118    22.807     6.809
    34   1 H        0.925     0.095     1.828     2.115
    35   1 H        0.926     0.096     1.822     2.111
    36   1 H        0.926     0.102     1.768     2.080
    37   1 H        0.000    -0.307    59.515    14.106
    38   1 H        0.924     0.058     2.224     2.332
    39   1 H        0.925     0.084     1.941     2.179
    40   1 H        0.924     0.051     2.310     2.377
    41   1 H        0.926     0.057     2.237     2.339
    42   1 H        0.926     0.045     2.384     2.414
    43   1 H        0.924     0.090     1.880     2.144
    44   1 H        0.925     0.055     2.262     2.352
    45   1 H        0.925     0.064     2.148     2.292
    46   1 H        0.924     0.089     1.892     2.151
    47   1 H        0.922     0.006     2.950     2.686
    48   1 H        0.926     0.073     2.053     2.241
    49   1 H        0.924     0.067     2.114     2.274
    50   1 H        0.924     0.068     2.106     2.270
    51   1 H        0.924     0.057     2.236     2.339
    52   1 H        0.924     0.056     2.246     2.343
    53   1 H        0.926     0.047     2.360     2.402
    54   1 H        0.926     0.060     2.200     2.320
    55   1 H        0.924     0.055     2.256     2.349
    56   1 H        0.924     0.057     2.233     2.337
    57   1 H        0.925     0.083     1.945     2.181
    58   1 H        0.925     0.083     1.952     2.185
    59   1 H        0.924     0.049     2.333     2.389
    60   1 H        0.924     0.053     2.282     2.362
    61   1 H        0.926     0.047     2.355     2.400
    62   1 H        0.924     0.078     1.997     2.210
    63   1 H        0.924     0.077     2.012     2.218
    64   1 H        0.925     0.080     1.974     2.197
    65   1 H        0.924     0.053     2.280     2.361
    66   1 H        0.925     0.069     2.098     2.265
    67   1 H        0.925     0.033     2.549     2.497
    68   1 H        0.925     0.054     2.274     2.358
    69   1 H        0.925     0.058     2.222     2.331
    70   1 H        0.925     0.040     2.443     2.444
    71   1 H        0.925     0.057     2.234     2.337
    72   1 H        0.860     0.158     1.347     1.818

Wiberg/Mayer (AO) data.
largest (>0.10) Wiberg bond orders for each atom

     #   Z sym  total        # sym  WBO       # sym  WBO       # sym  WBO
 ---------------------------------------------------------------------------
     1   7 N    3.045 --     2 C    1.958    72 H    0.941
     2   6 C    3.927 --     1 N    1.958     3 C    0.994    47 H    0.894
     3   6 C    3.973 --     2 C    0.994     4 C    0.969    14 C    0.957
                            31 C    0.938
     4   6 C    3.964 --     5 C    1.401    13 C    1.389     3 C    0.969
     5   6 C    3.869 --     4 C    1.401     6 C    1.365    34 H    0.906
     6   6 C    3.889 --     5 C    1.365     9 C    1.226     7 O    1.047
     7   8 O    2.434 --     8 C    1.296     6 C    1.047
     8   6 C    3.345 --     7 O    1.296    36 H    0.964    35 H    0.950
     9   6 C    3.888 --    12 C    1.380     6 C    1.226    10 O    1.112
    10   8 O    2.267 --     9 C    1.112    11 C    0.973
    11   6 C    3.929 --    39 H    0.977    40 H    0.975    38 H    0.974
                            10 O    0.973
    12   6 C    3.961 --    13 C    1.415     9 C    1.380    41 H    0.963
    13   6 C    3.918 --    12 C    1.415     4 C    1.389    42 H    0.963
    14   6 C    3.947 --    15 C    0.979    44 H    0.971     3 C    0.957
                            43 H    0.940
    15   6 C    3.984 --    16 C    1.063    14 C    0.979    45 H    0.962
                            46 H    0.921
    16   6 C    3.618 --    17 N    1.410    15 C    1.063    48 H    0.956
    17   7 N    3.493 --    16 C    1.410    30 C    0.998    18 C    0.987
    18   6 C    3.955 --    17 N    0.987    50 H    0.968    19 C    0.967
                            49 H    0.963
    19   6 C    3.977 --    20 C    1.007    51 H    0.972    52 H    0.971
                            18 C    0.967
    20   6 C    3.942 --    21 C    1.408    29 C    1.381    19 C    1.007
    21   6 C    3.948 --    22 C    1.418    20 C    1.408    53 H    0.968
    22   6 C    3.958 --    21 C    1.418    23 C    1.382    54 H    0.963
    23   6 C    3.893 --    22 C    1.382    26 C    1.217    24 O    1.113
    24   8 O    2.256 --    23 C    1.113    25 C    0.975
    25   6 C    3.927 --    57 H    0.977    24 O    0.975    55 H    0.972
                            56 H    0.972
    26   6 C    3.896 --    29 C    1.394    23 C    1.217    27 O    1.106
    27   8 O    2.254 --    26 C    1.106    28 C    0.978
    28   6 C    3.931 --    27 O    0.978    58 H    0.977    59 H    0.973
                            60 H    0.973
    29   6 C    3.958 --    26 C    1.394    20 C    1.381    61 H    0.962
    30   6 C    3.958 --    17 N    0.998    64 H    0.978    62 H    0.967
                            63 H    0.963
    31   6 C    3.964 --    33 C    1.009    32 C    1.008    65 H    0.954
                             3 C    0.938
    32   6 C    3.975 --    31 C    1.008    67 H    0.982    68 H    0.980
                            66 H    0.972
    33   6 C    3.979 --    31 C    1.009    70 H    0.981    71 H    0.979
                            69 H    0.976
    34   1 H    0.990 --     5 C    0.906
    35   1 H    0.991 --     8 C    0.950
    36   1 H    0.988 --     8 C    0.964
    37   1 H    0.097
    38   1 H    0.994 --    11 C    0.974
    39   1 H    0.992 --    11 C    0.977
    40   1 H    0.994 --    11 C    0.975
    41   1 H    0.995 --    12 C    0.963
    42   1 H    0.997 --    13 C    0.963
    43   1 H    0.990 --    14 C    0.940
    44   1 H    0.995 --    14 C    0.971
    45   1 H    0.995 --    15 C    0.962
    46   1 H    0.969 --    15 C    0.921
    47   1 H    0.985 --     2 C    0.894
    48   1 H    0.994 --    16 C    0.956
    49   1 H    0.991 --    18 C    0.963
    50   1 H    0.994 --    18 C    0.968
    51   1 H    0.995 --    19 C    0.972
    52   1 H    0.996 --    19 C    0.971
    53   1 H    0.997 --    21 C    0.968
    54   1 H    0.995 --    22 C    0.963
    55   1 H    0.991 --    25 C    0.972
    56   1 H    0.991 --    25 C    0.972
    57   1 H    0.992 --    25 C    0.977
    58   1 H    0.992 --    28 C    0.977
    59   1 H    0.993 --    28 C    0.973
    60   1 H    0.992 --    28 C    0.973
    61   1 H    0.996 --    29 C    0.962
    62   1 H    0.985 --    30 C    0.967
    63   1 H    0.988 --    30 C    0.963
    64   1 H    0.993 --    30 C    0.978
    65   1 H    0.988 --    31 C    0.954
    66   1 H    0.989 --    32 C    0.972
    67   1 H    0.996 --    32 C    0.982
    68   1 H    0.993 --    32 C    0.980
    69   1 H    0.992 --    33 C    0.976
    70   1 H    0.996 --    33 C    0.981
    71   1 H    0.993 --    33 C    0.979
    72   1 H    0.969 --     1 N    0.941
 ---------------------------------------------------------------------------

molecular dipole:
                 x           y           z       tot (Debye)
 q only:        1.153      -1.260       0.125
   full:        1.438      -1.394      -0.029       5.090

           -------------------------------------------------
          | TOTAL ENERGY              -99.279873365977 Eh   |
          | GRADIENT NORM               0.002431151268 Eh/α |
          | HOMO-LUMO GAP               0.621102518126 eV   |
           -------------------------------------------------

 * finished run on 2024/04/06 at 11:12:48.427
