   * xtb version 6.6.1 (8d0f1dd) compiled by 'conda@1efc2f54142f' on 2023-08-01
          program call               : xtb xtbopt.xyz --opt crude --input .xc2 --gfn2

   ID    Z sym.   atoms
    1    7 N      1, 17
    2    6 C      2-6, 8, 9, 11-16, 18-23, 25, 26, 28-33
    3    8 O      7, 10, 24, 27
    4    1 H      34-72
########################################################################
[WARNING] Please study the warnings concerning your input carefully
-1- readin_getIntValue: could not parse ''
########################################################################

          :  Hamiltonian                  GFN2-xTB          :
 * total energy  :   -99.3479544 Eh     change       -0.2970069E-11 Eh
   *** GEOMETRY OPTIMIZATION CONVERGED AFTER 1 ITERATIONS ***

 final structure:
================
72
 xtb: 6.6.1 (8d0f1dd)
N           -1.84113500683235        2.84745051417172        2.21353656865821
C           -1.75879246962665        2.16316297156004        1.17057292975935
C           -2.90419539982725        1.91740729756545        0.22490980146693
C           -3.32074968354758        0.45502046747055        0.29813095885283
C           -4.29106488534233       -0.01504328292640       -0.62210904331474
C           -4.76819601438390       -1.32267734520055       -0.58082753073889
O           -5.71626117605839       -1.82346148098721       -1.40902553097555
C           -6.39928533460804       -0.94873287318244       -2.27814145238679
C           -4.26597166764964       -2.22632420480922        0.36206688603421
O           -4.76876896495666       -3.46665764357192        0.34408284304529
C           -4.33563594177312       -4.41748516801126        1.28781684729086
C           -3.22626933835164       -1.81315894623254        1.34275176549983
C           -2.81290683252346       -0.38889874609619        1.22819515524257
C           -2.37467897695381        2.24940787229180       -1.19565556313294
C           -1.46965273245327        1.17605832047209       -1.82889569298362
C           -0.12133104293744        1.08613878471871       -1.20805437185916
N            0.46294923478359       -0.02268645457322       -0.76915214390618
C            1.84075672042876        0.10200191445544       -0.29932274105010
C            2.83067704142725       -0.22772894540199       -1.42716952014820
C            4.24716082844902       -0.04573328617898       -0.95511916110579
C            4.91062342112114        1.15365349778919       -1.15543017474151
C            6.21287040251488        1.32831162573404       -0.71275617615334
C            6.87764622623242        0.30428541268496       -0.05383879874539
O            8.13934351641582        0.35791350880106        0.41189702742261
C            8.89534648669819        1.53083327419431        0.21638081649347
C            6.20227543371360       -0.92879444720267        0.16359184261822
O            6.92221313448518       -1.86800856697314        0.80936906882994
C            6.35426287788778       -3.13440912892333        1.04229199627063
C            4.90060880510418       -1.07944173792335       -0.28790675930644
C           -0.05693925678609       -1.24235412372959       -0.73680219891513
C           -4.15415770868959        2.79073562037057        0.54335762813637
C           -4.77591339521987        2.41747777378091        1.88737299775291
C           -3.86055313949925        4.28805051568617        0.51037666706727
H           -4.68334119507913        0.66174087577074       -1.35997036803431
H           -6.87731400308901       -0.13281418993151       -1.72857450369452
H           -7.16392739701613       -1.55632859940497       -2.75795007467390
H           -5.73455297855180       -0.53820434442979       -3.04418576160714
H           -4.55314571132526       -4.09795887203296        2.31155795474852
H           -4.89425577910406       -5.32559540230834        1.06934432747616
H           -3.26421000514958       -4.62030225448133        1.19389293745377
H           -3.59188856052203       -1.99812886513578        2.36590654529725
H           -2.09459931219603       -0.05241055144049        1.95793957396110
H           -3.22660589306570        2.40004128150243       -1.85880868482960
H           -1.82580054307372        3.19104373440893       -1.15049485598043
H           -1.97996135554247        0.21515590968318       -1.80860617057152
H           -1.33961616000038        1.45857115397978       -2.88100906162512
H           -0.82431729275609        1.69763919067789        0.81561352080387
H            0.47939919689987        1.98136145970693       -1.20815225022581
H            1.99667413333454       -0.58071351203216        0.53805424657398
H            2.01804827644980        1.12098432867874        0.05032543077499
H            2.63594467245809        0.43336109514002       -2.27361420518489
H            2.67053837359036       -1.25718754063642       -1.75277813749643
H            4.41907676406691        1.96261660168215       -1.67401631324285
H            6.70594764485627        2.26940047488050       -0.89279703918866
H            8.43634025166323        2.39119363138532        0.71278857158429
H            9.02664534767110        1.74938172545587       -0.84766063929700
H            9.86599851025665        1.33065773948336        0.66604646348921
H            7.12407043623260       -3.71002989221078        1.55266039797314
H            5.46983001192172       -3.06607717989485        1.68392024701482
H            6.09023615371175       -3.63450080744885        0.10527863079767
H            4.38375889019839       -2.01448765751416       -0.13826728840341
H            0.52557217438870       -2.04523296164550       -0.33622507673032
H           -1.03345277961925       -1.43966103941557       -1.12503898744897
H           -2.34094421180800       -2.46317700442935        1.23861175681471
H           -4.89300004519360        2.57838009337315       -0.23770099321664
H           -4.07765176054076        2.62919608979500        2.69045947300730
H           -5.04419374251642        1.36420671285052        1.91960987133246
H           -5.67666994157771        3.00427414701641        2.04690913946875
H           -3.12334707733215        4.54418633770932        1.26477742453314
H           -3.50255049222158        4.60891359308848       -0.46403656879104
H           -4.77394089461803        4.83568805401672        0.72775055810753
H           -0.99655327004302        2.97264297678542        2.76320981065094

          :  Hamiltonian                  GFN2-xTB          :
         :: total energy             -99.347954359285 Eh    ::
         :: gradient norm              0.001815683562 Eh/a0 ::
         :: HOMO-LUMO gap              0.893169419479 eV    ::
         :: SCC energy              -100.716596457593 Eh    ::
         :: -> dispersion             -0.075457819041 Eh    ::
         :: repulsion energy           1.367371612901 Eh    ::

    * Orbital Energies and Occupations

         #    Occupation            Energy/Eh            Energy/eV
      -------------------------------------------------------------
         1        2.0000           -0.8320215             -22.6405
       ...           ...                  ...                  ...
        78        1.9985           -0.5296670             -14.4130
        79        1.9985           -0.5291758             -14.3996
        80        1.9982           -0.5265234             -14.3274
        81        1.9981           -0.5257354             -14.3060
        82        1.9968           -0.5174669             -14.0810
        83        1.9956           -0.5123292             -13.9412
        84        1.9953           -0.5113092             -13.9134
        85        1.9944           -0.5085078             -13.8372
        86        1.9770           -0.4859971             -13.2247
        87        1.9558           -0.4755027             -12.9391
        88        1.9389           -0.4702369             -12.7958
        89        1.8367           -0.4538023             -12.3486
        90        1.6075           -0.4378070             -11.9133 (HOMO)
        91        0.6801           -0.4049836             -11.0202 (LUMO)
        92        0.0156           -0.3387789              -9.2186
        93        0.0121           -0.3346512              -9.1063
        94        0.0042           -0.3178655              -8.6496
        95        0.0025           -0.3096394              -8.4257
        96        0.0021           -0.3069698              -8.3531
        97        0.0000           -0.2351486              -6.3987
        98        0.0000           -0.1847935              -5.0285
        99                         -0.1150970              -3.1319
       100                         -0.0868385              -2.3630
       101                         -0.0702364              -1.9112
       ...                                ...                  ...
       171                          0.5790949              15.7580
      -------------------------------------------------------------
                  HL-Gap            0.0328234 Eh            0.8932 eV

     #   Z          covCN         q      C6AA      α(0)
     1   7 N        1.774    -0.271    27.857     7.816
     2   6 C        2.826     0.099    25.796     8.322
     3   6 C        3.908     0.006    20.426     6.424
     4   6 C        2.961     0.017    27.639     8.623
     5   6 C        2.919    -0.079    29.972     8.978
     6   6 C        2.847     0.128    25.195     8.226
     7   8 O        1.706    -0.241    17.990     5.727
     8   6 C        3.643     0.027    20.453     6.501
     9   6 C        2.852     0.125    25.254     8.237
    10   8 O        1.706    -0.195    17.259     5.609
    11   6 C        3.644     0.020    20.584     6.521
    12   6 C        3.808    -0.070    21.837     6.652
    13   6 C        2.908    -0.060    29.485     8.904
    14   6 C        3.811    -0.064    21.719     6.634
    15   6 C        3.801    -0.063    21.718     6.635
    16   6 C        2.861    -0.041    29.018     8.830
    17   7 N        2.730     0.088    19.720     6.595
    18   6 C        3.782    -0.018    20.921     6.516
    19   6 C        3.808    -0.068    21.803     6.647
    20   6 C        2.968     0.001    28.006     8.680
    21   6 C        2.922    -0.048    29.189     8.860
    22   6 C        2.914    -0.067    29.673     8.933
    23   6 C        2.865     0.133    25.080     8.209
    24   8 O        1.706    -0.222    17.681     5.677
    25   6 C        3.645     0.025    20.489     6.505
    26   6 C        2.863     0.133    25.090     8.210
    27   8 O        1.706    -0.225    17.729     5.685
    28   6 C        3.645     0.027    20.450     6.500
    29   6 C        2.919    -0.079    29.976     8.978
    30   6 C        2.811    -0.110    30.770     9.088
    31   6 C        3.853    -0.008    20.686     6.469
    32   6 C        3.756    -0.119    22.837     6.814
    33   6 C        3.755    -0.118    22.824     6.812
    34   1 H        0.926     0.061     2.186     2.312
    35   1 H        0.924     0.054     2.276     2.359
    36   1 H        0.925     0.082     1.959     2.189
    37   1 H        0.924     0.050     2.322     2.383
    38   1 H        0.924     0.063     2.163     2.300
    39   1 H        0.925     0.092     1.856     2.130
    40   1 H        0.924     0.059     2.209     2.325
    41   1 H        0.923     0.088     1.903     2.157
    42   1 H        0.926     0.045     2.388     2.416
    43   1 H        0.925     0.055     2.256     2.349
    44   1 H        0.924     0.052     2.298     2.371
    45   1 H        0.925     0.054     2.275     2.359
    46   1 H        0.924     0.065     2.145     2.290
    47   1 H        0.923     0.011     2.882     2.655
    48   1 H        0.926     0.051     2.308     2.376
    49   1 H        0.924     0.070     2.086     2.259
    50   1 H        0.924     0.066     2.128     2.281
    51   1 H        0.924     0.057     2.235     2.338
    52   1 H        0.924     0.058     2.220     2.330
    53   1 H        0.926     0.047     2.354     2.399
    54   1 H        0.926     0.059     2.212     2.326
    55   1 H        0.924     0.054     2.266     2.354
    56   1 H        0.924     0.056     2.245     2.343
    57   1 H        0.925     0.082     1.957     2.188
    58   1 H        0.925     0.081     1.965     2.192
    59   1 H        0.924     0.048     2.342     2.393
    60   1 H        0.924     0.053     2.288     2.365
    61   1 H        0.926     0.048     2.350     2.397
    62   1 H        0.927     0.052     2.289     2.366
    63   1 H        0.927     0.052     2.291     2.367
    64   1 H        0.923     0.081     1.972     2.196
    65   1 H        0.924     0.036     2.499     2.472
    66   1 H        0.925     0.069     2.095     2.263
    67   1 H        0.925     0.030     2.581     2.512
    68   1 H        0.925     0.051     2.307     2.375
    69   1 H        0.925     0.062     2.178     2.308
    70   1 H        0.925     0.036     2.498     2.472
    71   1 H        0.925     0.053     2.282     2.362
    72   1 H        0.860     0.156     1.362     1.828

Wiberg/Mayer (AO) data.
largest (>0.10) Wiberg bond orders for each atom

     #   Z sym  total        # sym  WBO       # sym  WBO       # sym  WBO
 ---------------------------------------------------------------------------
     1   7 N    3.019 --     2 C    1.955    72 H    0.942
     2   6 C    3.932 --     1 N    1.955     3 C    0.993    47 H    0.913
     3   6 C    3.975 --     2 C    0.993     4 C    0.967    14 C    0.957
                            31 C    0.945
     4   6 C    3.977 --    13 C    1.624     5 C    1.246     3 C    0.967
     5   6 C    3.732 --     6 C    1.353     4 C    1.246    34 H    0.959
     6   6 C    3.910 --     5 C    1.353     9 C    1.311     7 O    1.084
     7   8 O    2.240 --     6 C    1.084     8 C    0.977
     8   6 C    3.931 --     7 O    0.977    36 H    0.976    35 H    0.974
                            37 H    0.974
     9   6 C    3.666 --     6 C    1.311    10 O    1.153    12 C    1.037
    10   8 O    2.272 --     9 C    1.153    11 C    0.974
    11   6 C    3.922 --    39 H    0.975    10 O    0.974    40 H    0.968
                            38 H    0.967
    12   6 C    3.983 --    13 C    1.043     9 C    1.037    64 H    0.914
                            41 H    0.913
    13   6 C    3.793 --     4 C    1.624    12 C    1.043    42 H    0.962
    14   6 C    3.976 --    15 C    0.983    44 H    0.972    43 H    0.969
                             3 C    0.957
    15   6 C    3.986 --    16 C    1.046    14 C    0.983    45 H    0.962
                            46 H    0.943
    16   6 C    3.689 --    17 N    1.350    15 C    1.046    48 H    0.962
                            30 C    0.235
    17   7 N    3.738 --    30 C    1.359    16 C    1.350    18 C    0.966
    18   6 C    3.954 --    19 C    0.977    50 H    0.969    49 H    0.968
                            17 N    0.966
    19   6 C    3.987 --    20 C    1.007    18 C    0.977    51 H    0.972
                            52 H    0.970
    20   6 C    3.943 --    21 C    1.411    29 C    1.380    19 C    1.007
    21   6 C    3.949 --    22 C    1.416    20 C    1.411    53 H    0.968
    22   6 C    3.958 --    21 C    1.416    23 C    1.384    54 H    0.963
    23   6 C    3.894 --    22 C    1.384    26 C    1.219    24 O    1.110
    24   8 O    2.253 --    23 C    1.110    25 C    0.976
    25   6 C    3.928 --    57 H    0.977    24 O    0.976    55 H    0.972
                            56 H    0.972
    26   6 C    3.897 --    29 C    1.396    23 C    1.219    27 O    1.103
    27   8 O    2.253 --    26 C    1.103    28 C    0.979
    28   6 C    3.932 --    27 O    0.979    58 H    0.977    59 H    0.973
                            60 H    0.973
    29   6 C    3.959 --    26 C    1.396    20 C    1.380    61 H    0.963
    30   6 C    3.612 --    17 N    1.359    62 H    0.976    63 H    0.970
                            16 C    0.235
    31   6 C    3.976 --    33 C    1.009    32 C    1.008    65 H    0.959
                             3 C    0.945
    32   6 C    3.981 --    31 C    1.008    67 H    0.983    68 H    0.982
                            66 H    0.974
    33   6 C    3.983 --    31 C    1.009    70 H    0.983    71 H    0.981
                            69 H    0.976
    34   1 H    0.995 --     5 C    0.959
    35   1 H    0.994 --     8 C    0.974
    36   1 H    0.993 --     8 C    0.976
    37   1 H    0.994 --     8 C    0.974
    38   1 H    0.989 --    11 C    0.967
    39   1 H    0.991 --    11 C    0.975
    40   1 H    0.990 --    11 C    0.968
    41   1 H    0.954 --    12 C    0.913
    42   1 H    0.998 --    13 C    0.962
    43   1 H    0.995 --    14 C    0.969
    44   1 H    0.996 --    14 C    0.972
    45   1 H    0.997 --    15 C    0.962
    46   1 H    0.978 --    15 C    0.943
    47   1 H    0.983 --     2 C    0.913
    48   1 H    0.997 --    16 C    0.962
    49   1 H    0.994 --    18 C    0.968
    50   1 H    0.995 --    18 C    0.969
    51   1 H    0.996 --    19 C    0.972
    52   1 H    0.995 --    19 C    0.970
    53   1 H    0.997 --    21 C    0.968
    54   1 H    0.995 --    22 C    0.963
    55   1 H    0.991 --    25 C    0.972
    56   1 H    0.991 --    25 C    0.972
    57   1 H    0.993 --    25 C    0.977
    58   1 H    0.993 --    28 C    0.977
    59   1 H    0.993 --    28 C    0.973
    60   1 H    0.993 --    28 C    0.973
    61   1 H    0.996 --    29 C    0.963
    62   1 H    0.997 --    30 C    0.976
    63   1 H    0.997 --    30 C    0.970
    64   1 H    0.954 --    12 C    0.914
    65   1 H    0.992 --    31 C    0.959
    66   1 H    0.991 --    32 C    0.974
    67   1 H    0.997 --    32 C    0.983
    68   1 H    0.994 --    32 C    0.982
    69   1 H    0.993 --    33 C    0.976
    70   1 H    0.997 --    33 C    0.983
    71   1 H    0.994 --    33 C    0.981
    72   1 H    0.970 --     1 N    0.942
 ---------------------------------------------------------------------------

molecular dipole:
                 x           y           z       tot (Debye)
 q only:       -0.138      -0.653      -0.073
   full:        0.174      -0.787      -0.206       2.114

           -------------------------------------------------
          | TOTAL ENERGY              -99.347954359285 Eh   |
          | GRADIENT NORM               0.001815683562 Eh/α |
          | HOMO-LUMO GAP               0.893169419479 eV   |
           -------------------------------------------------

 * finished run on 2024/04/06 at 11:13:48.938
