   * xtb version 6.6.1 (8d0f1dd) compiled by 'conda@1efc2f54142f' on 2023-08-01
          program call               : xtb struc.xyz --opt loose --input .xc1 --gfn2

   ID    Z sym.   atoms
    1    7 N      1, 17
    2    6 C      2-6, 8, 9, 11-16, 18-23, 25, 26, 28-33
    3    8 O      7, 10, 24, 27
    4    1 H      34-72
constraining bond 26 58 to    5.1400000 Å, actual value:    3.2436624 Å

          :  Hamiltonian                  GFN2-xTB          :
 * total energy  :   -98.7620364 Eh     change       -0.4035485E-08 Eh
 * total energy  :   -98.9749862 Eh     change       -0.2129498E+00 Eh
 * total energy  :   -99.0949095 Eh     change       -0.1199233E+00 Eh
 * total energy  :   -99.1485919 Eh     change       -0.5368239E-01 Eh
 * total energy  :   -99.1730992 Eh     change       -0.2450729E-01 Eh
 * total energy  :   -99.1878066 Eh     change       -0.1470734E-01 Eh
 * total energy  :   -99.2013710 Eh     change       -0.1356445E-01 Eh
 * total energy  :   -99.2195141 Eh     change       -0.1814312E-01 Eh
 * total energy  :   -99.2322972 Eh     change       -0.1278302E-01 Eh
 * total energy  :   -99.2394950 Eh     change       -0.7197807E-02 Eh
 * total energy  :   -99.2691545 Eh     change       -0.3238180E-03 Eh
 * total energy  :   -99.2693567 Eh     change       -0.2022588E-03 Eh
 * total energy  :   -99.2696016 Eh     change       -0.2448586E-03 Eh
 * total energy  :   -99.2697664 Eh     change       -0.1648164E-03 Eh
 * total energy  :   -99.2699083 Eh     change       -0.1419015E-03 Eh
 * total energy  :   -99.2700355 Eh     change       -0.1271800E-03 Eh
 * total energy  :   -99.2701082 Eh     change       -0.7271381E-04 Eh
 * total energy  :   -99.2701616 Eh     change       -0.5337203E-04 Eh
 * total energy  :   -99.2702115 Eh     change       -0.4991660E-04 Eh
   *** GEOMETRY OPTIMIZATION CONVERGED AFTER 38 ITERATIONS ***

 final structure:
================
72
 xtb: 6.6.1 (8d0f1dd)
N           -1.91318416183205        2.86958072179165        2.20246458601059
C           -1.87458133387878        2.16325034713870        1.17359348425347
C           -3.03308405010455        1.93985342125957        0.24185817486506
C           -3.47794576966184        0.48713245870008        0.32376708170779
C           -4.41493999509896       -0.00244945050338       -0.58858434208377
C           -4.87320442703453       -1.30766995535655       -0.52618016265787
O           -5.78532004305682       -1.85378080269090       -1.35691182837434
C           -6.42371755033175       -1.03869209057292       -2.31138330291922
C           -4.37168810600111       -2.17834621576695        0.47888634790267
O           -4.87060748581050       -3.43060893090303        0.46320602021675
C           -4.49525984112451       -4.33071377819695        1.47959896053722
C           -3.43907074599715       -1.68754235011615        1.37839183299501
C           -3.00161324579274       -0.37090546407965        1.30262510332039
C           -2.50117541512915        2.25246613372804       -1.18134722940549
C           -1.55412795365165        1.18371831932862       -1.75596704982200
C           -0.21316157554362        1.18120111206017       -1.12975179406145
N            0.46920762916759        0.09499874847117       -0.77820400570139
C            1.84951336425850        0.19618761325744       -0.36826847510692
C            2.81729966276531       -0.21162314225676       -1.49688030434644
C            4.23734259443029       -0.06362398371655       -1.02705660958472
C            4.92519857090546        1.12807484574119       -1.21366380737594
C            6.21623048324329        1.29842460063769       -0.73717555942688
C            6.85446739830766        0.27481826588433       -0.04953211938274
O            8.09684193472187        0.31089490026571        0.45350275849244
C            8.87162939652979        1.48047048696987        0.31153616146476
C            6.15677887836967       -0.94922250569339        0.14056654736047
O            6.83327947763818       -1.89155653827657        0.84680251328808
C            6.51195692749765       -3.15199352109016        0.91415913959579
C            4.86329952976620       -1.10166548665336       -0.34996674750672
C           -0.11083500469376       -1.22509387816823       -0.84275393874004
C           -4.26104816603947        2.84429921311175        0.55933791476665
C           -4.87137696547354        2.50109967935652        1.91619851999375
C           -3.94059236180587        4.33530863434913        0.50037714942507
H           -4.80446343540136        0.65372012053995       -1.34899440391523
H           -6.94353196182792       -0.19992686299483       -1.83865435415444
H           -7.15109755708644       -1.68117239504465       -2.80365357646357
H           -5.71619534776629       -0.65969514768718       -3.05613542292843
H           -4.75864232328968       -3.94879323464889        2.47037625198584
H           -5.05605856939996       -5.24245023224224        1.28361587927122
H           -3.42346580911547       -4.55114772882127        1.44568624576033
H           -3.05349865287163       -2.31988183299977        2.16162831247678
H           -2.30114144262525       -0.01691512197427        2.04320525859627
H           -3.34958249646553        2.34990080619217       -1.85771757389760
H           -1.98445776612271        3.21265935677601       -1.16096140724994
H           -2.02838121290603        0.20573403439931       -1.69517453002379
H           -1.41800503018525        1.42324571209871       -2.81892578039198
H           -0.95932496006667        1.65623614805902        0.80839620275937
H            0.32113422992094        2.11901418780404       -1.09180257270019
H            2.01367236496369       -0.44743844954712        0.50061820193943
H            2.06497907061246        1.22566320323728       -0.07439532208204
H            2.64166633465049        0.43096640058793       -2.36091691030575
H            2.62240612873698       -1.24395356426252       -1.78971442548119
H            4.45428744212996        1.94029473480584       -1.74494593473470
H            6.72058461299469        2.23465640804871       -0.90900787496268
H            8.39329109020824        2.33857235830065        0.79197853678712
H            9.06254755028818        1.70716227613605       -0.74120837915356
H            9.81446925394007        1.26554971386130        0.81091705286244
H            7.83970824778448       -5.02727700825586        2.75852517247712
H            7.10758411783812       -3.76577819703446        1.59186026571207
H            5.73893437935548       -3.59526511262464        0.30417196018979
H            4.33137347779255       -2.02599994991165       -0.18519743085581
H           -0.30263242909727       -1.52283309663418       -1.87576024497318
H           -1.05238731643298       -1.25595689543172       -0.28846826010738
H            0.57539711120347       -1.94061774328698       -0.39753537216556
H           -5.01119405155099        2.62970931236892       -0.21033710018195
H           -4.16177959121872        2.71613714930640        2.70856234146092
H           -5.15150711043572        1.45174692309889        1.96756981134433
H           -5.76286859366235        3.10158069777860        2.07677034804444
H           -3.17678211051814        4.58640972940416        1.22977266114030
H           -3.60847241410339        4.64113789372784       -0.48819591338747
H           -4.83690488520766        4.90152472818344        0.73953664511963
H           -1.05965639760621        2.97132879317195        2.74253146508817

          :  Hamiltonian                  GFN2-xTB          :
         :: total energy             -99.270211480607 Eh    ::
         :: gradient norm              0.003587602136 Eh/a0 ::
         :: HOMO-LUMO gap              0.426774121129 eV    ::
         :: SCC energy              -100.642525157647 Eh    ::
         :: -> dispersion             -0.074984900073 Eh    ::
         :: repulsion energy           1.371082058070 Eh    ::

    * Orbital Energies and Occupations

         #    Occupation            Energy/Eh            Energy/eV
      -------------------------------------------------------------
         1        2.0000           -0.8477521             -23.0685
       ...           ...                  ...                  ...
        78        1.9988           -0.5333513             -14.5132
        79        1.9983           -0.5285163             -14.3817
        80        1.9983           -0.5279267             -14.3656
        81        1.9975           -0.5223772             -14.2146
        82        1.9960           -0.5148974             -14.0111
        83        1.9959           -0.5145405             -14.0014
        84        1.9953           -0.5122410             -13.9388
        85        1.9944           -0.5094778             -13.8636
        86        1.9813           -0.4902244             -13.3397
        87        1.9709           -0.4831532             -13.1473
        88        1.9400           -0.4714420             -12.8286
        89        1.8740           -0.4591525             -12.4942
        90        1.1497           -0.4211818             -11.4609 (HOMO)
        91        0.6686           -0.4054981             -11.0342 (LUMO)
        92        0.4146           -0.3951670             -10.7530
        93        0.0151           -0.3391402              -9.2285
        94        0.0067           -0.3262119              -8.8767
        95        0.0047           -0.3206942              -8.7265
        96        0.0036           -0.3162662              -8.6060
        97        0.0030           -0.3132116              -8.5229
        98        0.0000           -0.2021339              -5.5003
        99        0.0000           -0.1905642              -5.1855
       100                         -0.1387966              -3.7768
       101                         -0.0705508              -1.9198
       ...                                ...                  ...
       171                          0.5727181              15.5845
      -------------------------------------------------------------
                  HL-Gap            0.0156837 Eh            0.4268 eV

     #   Z          covCN         q      C6AA      α(0)
     1   7 N        1.774    -0.268    27.786     7.806
     2   6 C        2.827     0.101    25.749     8.315
     3   6 C        3.907     0.006    20.413     6.422
     4   6 C        2.974     0.002    27.976     8.676
     5   6 C        2.920    -0.080    30.000     8.982
     6   6 C        2.862     0.129    25.163     8.222
     7   8 O        1.706    -0.230    17.818     5.699
     8   6 C        3.644     0.028    20.445     6.499
     9   6 C        2.864     0.128    25.183     8.226
    10   8 O        1.706    -0.229    17.795     5.695
    11   6 C        3.645     0.027    20.454     6.500
    12   6 C        2.914    -0.075    29.865     8.961
    13   6 C        2.921    -0.053    29.328     8.881
    14   6 C        3.812    -0.065    21.732     6.635
    15   6 C        3.802    -0.069    21.818     6.650
    16   6 C        2.843     0.005    27.897     8.656
    17   7 N        2.729     0.008    21.127     6.827
    18   6 C        3.755    -0.016    20.918     6.521
    19   6 C        3.807    -0.072    21.870     6.657
    20   6 C        2.968     0.002    27.985     8.677
    21   6 C        2.923    -0.044    29.090     8.845
    22   6 C        2.913    -0.067    29.675     8.933
    23   6 C        2.862     0.140    24.936     8.185
    24   8 O        1.706    -0.224    17.711     5.682
    25   6 C        3.645     0.023    20.523     6.511
    26   6 C        2.870     0.104    25.690     8.308
    27   8 O        1.710    -0.095    15.769     5.361
    28   6 C        2.732     0.035    27.199     8.538
    29   6 C        2.918    -0.068    29.691     8.935
    30   6 C        3.699    -0.070    22.006     6.709
    31   6 C        3.853    -0.007    20.673     6.467
    32   6 C        3.756    -0.119    22.826     6.812
    33   6 C        3.755    -0.119    22.826     6.812
    34   1 H        0.926     0.052     2.298     2.371
    35   1 H        0.924     0.054     2.274     2.358
    36   1 H        0.925     0.081     1.968     2.194
    37   1 H        0.924     0.047     2.356     2.400
    38   1 H        0.924     0.055     2.258     2.350
    39   1 H        0.925     0.081     1.967     2.193
    40   1 H        0.924     0.048     2.346     2.395
    41   1 H        0.926     0.052     2.298     2.371
    42   1 H        0.926     0.038     2.476     2.461
    43   1 H        0.925     0.060     2.198     2.319
    44   1 H        0.924     0.053     2.279     2.361
    45   1 H        0.925     0.066     2.128     2.281
    46   1 H        0.923     0.079     1.990     2.206
    47   1 H        0.922     0.006     2.957     2.689
    48   1 H        0.926     0.068     2.109     2.271
    49   1 H        0.924     0.067     2.119     2.277
    50   1 H        0.924     0.067     2.121     2.278
    51   1 H        0.924     0.058     2.222     2.331
    52   1 H        0.924     0.058     2.223     2.332
    53   1 H        0.926     0.053     2.285     2.364
    54   1 H        0.926     0.064     2.149     2.292
    55   1 H        0.924     0.056     2.245     2.343
    56   1 H        0.924     0.058     2.226     2.333
    57   1 H        0.925     0.085     1.925     2.170
    58   1 H        0.000    -0.141    18.075     7.774
    59   1 H        0.924     0.118     1.634     1.999
    60   1 H        0.926     0.065     2.138     2.287
    61   1 H        0.926     0.051     2.302     2.373
    62   1 H        0.924     0.076     2.022     2.224
    63   1 H        0.924     0.079     1.985     2.203
    64   1 H        0.925     0.079     1.991     2.206
    65   1 H        0.924     0.037     2.488     2.467
    66   1 H        0.925     0.069     2.100     2.266
    67   1 H        0.925     0.035     2.512     2.479
    68   1 H        0.925     0.051     2.307     2.375
    69   1 H        0.925     0.061     2.193     2.316
    70   1 H        0.925     0.034     2.527     2.486
    71   1 H        0.925     0.054     2.266     2.354
    72   1 H        0.860     0.156     1.359     1.826

Wiberg/Mayer (AO) data.
largest (>0.10) Wiberg bond orders for each atom

     #   Z sym  total        # sym  WBO       # sym  WBO       # sym  WBO
 ---------------------------------------------------------------------------
     1   7 N    3.041 --     2 C    1.956    72 H    0.942
     2   6 C    3.927 --     1 N    1.956     3 C    0.995    47 H    0.898
     3   6 C    3.976 --     2 C    0.995     4 C    0.969    14 C    0.957
                            31 C    0.942
     4   6 C    3.950 --    13 C    1.415     5 C    1.368     3 C    0.969
     5   6 C    3.963 --     6 C    1.402     4 C    1.368    34 H    0.958
     6   6 C    3.906 --     5 C    1.402     9 C    1.222     7 O    1.099
     7   8 O    2.254 --     6 C    1.099     8 C    0.978
     8   6 C    3.932 --     7 O    0.978    36 H    0.977    35 H    0.974
                            37 H    0.973
     9   6 C    3.902 --    12 C    1.392     6 C    1.222    10 O    1.101
    10   8 O    2.253 --     9 C    1.101    11 C    0.977
    11   6 C    3.931 --    10 O    0.977    39 H    0.977    40 H    0.974
                            38 H    0.973
    12   6 C    3.963 --    13 C    1.403     9 C    1.392    41 H    0.964
    13   6 C    3.955 --     4 C    1.415    12 C    1.403    42 H    0.962
    14   6 C    3.973 --    15 C    0.982    44 H    0.972    43 H    0.969
                             3 C    0.957
    15   6 C    3.987 --    16 C    1.060    14 C    0.982    45 H    0.961
                            46 H    0.927
    16   6 C    3.580 --    17 N    1.389    15 C    1.060    48 H    0.958
    17   7 N    3.469 --    16 C    1.389    30 C    0.998    18 C    0.990
    18   6 C    3.958 --    17 N    0.990    50 H    0.968    19 C    0.967
                            49 H    0.964
    19   6 C    3.977 --    20 C    1.008    51 H    0.972    52 H    0.971
                            18 C    0.967
    20   6 C    3.969 --    29 C    1.407    21 C    1.394    19 C    1.008
    21   6 C    3.923 --    22 C    1.424    20 C    1.394    53 H    0.968
    22   6 C    3.961 --    21 C    1.424    23 C    1.375    54 H    0.963
    23   6 C    3.893 --    22 C    1.375    26 C    1.228    24 O    1.122
    24   8 O    2.279 --    23 C    1.122    25 C    0.971
    25   6 C    3.926 --    57 H    0.977    55 H    0.974    56 H    0.974
                            24 O    0.971
    26   6 C    3.891 --    29 C    1.364    23 C    1.228    27 O    1.048
    27   8 O    2.428 --    28 C    1.285    26 C    1.048
    28   6 C    3.296 --    27 O    1.285    60 H    0.964    59 H    0.920
    29   6 C    3.914 --    20 C    1.407    26 C    1.364    61 H    0.961
    30   6 C    3.958 --    17 N    0.998    64 H    0.978    62 H    0.967
                            63 H    0.962
    31   6 C    3.973 --    33 C    1.009    32 C    1.008    65 H    0.960
                             3 C    0.942
    32   6 C    3.979 --    31 C    1.008    67 H    0.982    68 H    0.981
                            66 H    0.974
    33   6 C    3.983 --    31 C    1.009    70 H    0.983    71 H    0.980
                            69 H    0.977
    34   1 H    0.996 --     5 C    0.958
    35   1 H    0.993 --     8 C    0.974
    36   1 H    0.993 --     8 C    0.977
    37   1 H    0.994 --     8 C    0.973
    38   1 H    0.993 --    11 C    0.973
    39   1 H    0.993 --    11 C    0.977
    40   1 H    0.993 --    11 C    0.974
    41   1 H    0.996 --    12 C    0.964
    42   1 H    0.998 --    13 C    0.962
    43   1 H    0.995 --    14 C    0.969
    44   1 H    0.996 --    14 C    0.972
    45   1 H    0.995 --    15 C    0.961
    46   1 H    0.969 --    15 C    0.927
    47   1 H    0.987 --     2 C    0.898
    48   1 H    0.995 --    16 C    0.958
    49   1 H    0.991 --    18 C    0.964
    50   1 H    0.994 --    18 C    0.968
    51   1 H    0.996 --    19 C    0.972
    52   1 H    0.996 --    19 C    0.971
    53   1 H    0.997 --    21 C    0.968
    54   1 H    0.995 --    22 C    0.963
    55   1 H    0.994 --    25 C    0.974
    56   1 H    0.993 --    25 C    0.974
    57   1 H    0.992 --    25 C    0.977
    58   1 H    0.046
    59   1 H    0.985 --    28 C    0.920
    60   1 H    0.993 --    28 C    0.964
    61   1 H    0.996 --    29 C    0.961
    62   1 H    0.985 --    30 C    0.967
    63   1 H    0.987 --    30 C    0.962
    64   1 H    0.994 --    30 C    0.978
    65   1 H    0.993 --    31 C    0.960
    66   1 H    0.991 --    32 C    0.974
    67   1 H    0.997 --    32 C    0.982
    68   1 H    0.994 --    32 C    0.981
    69   1 H    0.993 --    33 C    0.977
    70   1 H    0.997 --    33 C    0.983
    71   1 H    0.994 --    33 C    0.980
    72   1 H    0.970 --     1 N    0.942
 ---------------------------------------------------------------------------

molecular dipole:
                 x           y           z       tot (Debye)
 q only:        0.608       0.870      -1.478
   full:        0.955       0.800      -1.657       5.269

           -------------------------------------------------
          | TOTAL ENERGY              -99.270211480607 Eh   |
          | GRADIENT NORM               0.003587602136 Eh/α |
          | HOMO-LUMO GAP               0.426774121129 eV   |
           -------------------------------------------------

 * finished run on 2024/04/06 at 11:14:35.155
