   * xtb version 6.6.1 (8d0f1dd) compiled by 'conda@1efc2f54142f' on 2023-08-01
          program call               : xtb struc.xyz --opt loose --input .xc1 --gfn2

   ID    Z sym.   atoms
    1    7 N      1, 17
    2    6 C      2-6, 8, 9, 11-16, 18-23, 25, 26, 28-33
    3    8 O      7, 10, 24, 27
    4    1 H      34-72
constraining bond 50 51 to    4.2800000 Å, actual value:    2.5035487 Å

          :  Hamiltonian                  GFN2-xTB          :
 * total energy  :   -98.8406564 Eh     change       -0.4035485E-08 Eh
 * total energy  :   -99.0993243 Eh     change       -0.2586678E+00 Eh
 * total energy  :   -99.2359631 Eh     change       -0.1366388E+00 Eh
 * total energy  :   -99.2743131 Eh     change       -0.3835007E-01 Eh
 * total energy  :   -99.2801918 Eh     change       -0.5878687E-02 Eh
 * total energy  :   -99.2824012 Eh     change       -0.2209369E-02 Eh
 * total energy  :   -99.2851694 Eh     change       -0.2768265E-02 Eh
 * total energy  :   -99.2870934 Eh     change       -0.1923964E-02 Eh
 * total energy  :   -99.2878262 Eh     change       -0.7327571E-03 Eh
 * total energy  :   -99.2882886 Eh     change       -0.4624563E-03 Eh
 * total energy  :   -99.3273453 Eh     change       -0.7636524E-04 Eh
 * total energy  :   -99.3274171 Eh     change       -0.7176740E-04 Eh
 * total energy  :   -99.3274816 Eh     change       -0.6449218E-04 Eh
 * total energy  :   -99.3275378 Eh     change       -0.5619927E-04 Eh
 * total energy  :   -99.3275898 Eh     change       -0.5201951E-04 Eh
 * total energy  :   -99.3276434 Eh     change       -0.5362026E-04 Eh
 * total energy  :   -99.3276964 Eh     change       -0.5301071E-04 Eh
 * total energy  :   -99.3277470 Eh     change       -0.5054668E-04 Eh
 * total energy  :   -99.3277870 Eh     change       -0.3999987E-04 Eh
   *** GEOMETRY OPTIMIZATION CONVERGED AFTER 43 ITERATIONS ***

 final structure:
================
72
 xtb: 6.6.1 (8d0f1dd)
N           -2.21911755982974        2.98854240966115        2.48902566503530
C           -2.05195263248351        2.22520616966112        1.51477959302996
C           -3.06906201433733        1.99781265251577        0.42899794483165
C           -3.50935142503955        0.54312350648572        0.44708276025846
C           -4.30097284287596        0.04296533599336       -0.58902633360107
C           -4.73985014130387       -1.27095751255715       -0.59568665300881
O           -5.51598584277632       -1.82976668934398       -1.54688715911223
C           -6.03244411595493       -1.02215446287090       -2.57873872924226
C           -4.36505140440784       -2.14033590484104        0.46559518765040
O           -4.81985612474261       -3.40464299525340        0.36664368417427
C           -4.54439279635301       -4.31736536066959        1.40400718341790
C           -3.58700709495373       -1.63505728307797        1.49539695077840
C           -3.17085892452079       -0.31007622375008        1.48712025149924
C           -2.35045726887911        2.32876376827645       -0.90735167201927
C           -1.36952729600949        1.25542965344943       -1.41290277797682
C           -0.12017385108465        1.17425606594148       -0.61395674780113
N            0.47871889127322        0.05636932630292       -0.21481950404448
C            1.62661031414265        0.04717077776096        0.45026203773423
C            3.49086562809499       -0.96087935040069       -2.46723552947155
C            4.58127814348194       -0.56430670075563       -1.73127968087982
C            5.20974060221046        0.69348513948553       -1.95355150574078
C            6.30980812023697        1.07825008442921       -1.23205495959207
C            6.85076675433128        0.24536870946215       -0.24754134736593
O            7.92185272386998        0.51847249233053        0.50577618204977
C            8.62289755483537        1.72777064104033        0.31853426319823
C            6.23897698108944       -1.02626945786102        0.00226601896941
O            6.84120488731462       -1.75238148918914        0.96614295734787
C            6.37820422995757       -3.05633825041980        1.22780183295202
C            5.13715781259666       -1.40456983855012       -0.72045157314332
C           -0.14872327025654       -1.22375319060216       -0.49462038845224
C           -4.33581519342258        2.89228748780966        0.57838209263601
C           -5.10676697576961        2.56420396851212        1.85470595978534
C           -4.02620148561839        4.38608760208221        0.53364075209407
H           -4.58774156872728        0.69635255433143       -1.39636031799719
H           -6.62687176178527       -0.19463035528077       -2.17991591425986
H           -6.67420049066919       -1.67538107352493       -3.16703496526344
H           -5.23618459311514       -0.62805268572379       -3.21876423676673
H           -4.96259882713887       -3.97957189262382        2.35675602456201
H           -5.02473022155756       -5.24779985891524        1.10836858341487
H           -3.46844353716225       -4.48505628796852        1.51629049152308
H           -3.30817277561896       -2.26326566504975        2.32578566023858
H           -2.59356205435359        0.05347659134955        2.32304990812474
H           -3.10688105266370        2.47918501322402       -1.67736427517072
H           -1.81241715975238        3.26981151713226       -0.78760955568655
H           -1.88119774761633        0.29656641563903       -1.46435862828923
H           -1.10101641469669        1.54167722974676       -2.43843351048535
H           -1.11804061051039        1.66816856641422        1.32571739547749
H            0.41797037888336        2.09304883879232       -0.43750101866130
H            2.07344415580636       -0.87782660000457        0.74659345366665
H            2.10715401184448        0.97435364986555        0.69591748291756
H            3.08961100109267       -0.34555746933427       -3.25100044468424
H            3.03367877797530       -1.92110417240172       -2.31020380562062
H            4.81015596110642        1.34325965504081       -2.71600646899600
H            6.76795844250254        2.03335415650935       -1.43397788172080
H            7.98781179219059        2.59471279202975        0.52257444877603
H            9.02973132128701        1.80092809571413       -0.69364242062321
H            9.44095610121015        1.70441103241244        1.03551221631054
H            7.04699145009961       -3.45799120596140        1.98706675854961
H            5.35405288092697       -3.04751041766820        1.61323452353953
H            6.42655468988471       -3.68346930533253        0.33202800322204
H            4.67072969179109       -2.36241358978930       -0.55553644281241
H           -0.22153096537806       -1.38039017466169       -1.57057282946506
H           -1.14875433866411       -1.25940890638415       -0.05945293268017
H            0.44742136728848       -2.02386620011809       -0.06388795791563
H           -4.98350217014304        2.65631246247856       -0.27407195683006
H           -4.51451859847116        2.82817267718902        2.72515175853890
H           -5.35579652865408        1.50685241241513        1.90401588052737
H           -6.03122866603742        3.13518226392602        1.87931510272079
H           -3.35121554470756        4.65464642169251        1.34050435441366
H           -3.58698250039049        4.68194836797537       -0.41520885175290
H           -4.94919128631709        4.94558038327889        0.66268271224030
H           -1.45744139555838        3.09272320504752        3.15154774353651

          :  Hamiltonian                  GFN2-xTB          :
         :: total energy             -99.327786998861 Eh    ::
         :: gradient norm              0.002301785096 Eh/a0 ::
         :: HOMO-LUMO gap              0.724213792146 eV    ::
         :: SCC energy              -100.731002680373 Eh    ::
         :: -> dispersion             -0.073135715731 Eh    ::
         :: repulsion energy           1.401400030722 Eh    ::

    * Orbital Energies and Occupations

         #    Occupation            Energy/Eh            Energy/eV
      -------------------------------------------------------------
         1        2.0000           -0.8162443             -22.2111
       ...           ...                  ...                  ...
        78        1.9977           -0.5277233             -14.3601
        79        1.9976           -0.5269011             -14.3377
        80        1.9967           -0.5220569             -14.2059
        81        1.9963           -0.5203978             -14.1607
        82        1.9944           -0.5136347             -13.9767
        83        1.9936           -0.5115179             -13.9191
        84        1.9921           -0.5081242             -13.8268
        85        1.9886           -0.5023132             -13.6686
        86        1.9766           -0.4908913             -13.3578
        87        1.9293           -0.4730011             -12.8710
        88        1.9181           -0.4705730             -12.8049
        89        1.8481           -0.4602060             -12.5228
        90        1.5584           -0.4406103             -11.9896 (HOMO)
        91        0.7931           -0.4139959             -11.2654 (LUMO)
        92        0.0140           -0.3421550              -9.3105
        93        0.0089           -0.3349433              -9.1143
        94        0.0029           -0.3171741              -8.6307
        95        0.0024           -0.3141022              -8.5472
        96        0.0020           -0.3111012              -8.4655
        97        0.0004           -0.2872582              -7.8167
        98        0.0000           -0.1916853              -5.2160
        99        0.0000           -0.1801125              -4.9011
       100                         -0.1032070              -2.8084
       101                         -0.0668742              -1.8197
       ...                                ...                  ...
       171                          0.5897058              16.0467
      -------------------------------------------------------------
                  HL-Gap            0.0266144 Eh            0.7242 eV

     #   Z          covCN         q      C6AA      α(0)
     1   7 N        1.774    -0.264    27.688     7.792
     2   6 C        2.827     0.102    25.743     8.314
     3   6 C        3.907     0.007    20.404     6.421
     4   6 C        2.974     0.005    27.912     8.666
     5   6 C        2.920    -0.079    29.965     8.977
     6   6 C        2.862     0.130    25.160     8.222
     7   8 O        1.706    -0.229    17.789     5.695
     8   6 C        3.644     0.027    20.458     6.501
     9   6 C        2.864     0.129    25.177     8.225
    10   8 O        1.706    -0.227    17.759     5.690
    11   6 C        3.645     0.026    20.468     6.502
    12   6 C        2.913    -0.074    29.846     8.959
    13   6 C        2.921    -0.052    29.288     8.875
    14   6 C        3.811    -0.065    21.728     6.635
    15   6 C        3.801    -0.067    21.776     6.644
    16   6 C        2.869    -0.041    29.012     8.829
    17   7 N        2.729     0.101    19.502     6.559
    18   6 C        2.822    -0.106    30.662     9.073
    19   6 C        2.852    -0.096    30.400     9.037
    20   6 C        2.959     0.023    27.501     8.602
    21   6 C        2.921    -0.038    28.945     8.823
    22   6 C        2.906    -0.063    29.557     8.915
    23   6 C        2.864     0.140    24.939     8.186
    24   8 O        1.706    -0.204    17.395     5.631
    25   6 C        3.645     0.022    20.547     6.515
    26   6 C        2.857     0.135    25.045     8.203
    27   8 O        1.706    -0.231    17.822     5.700
    28   6 C        3.646     0.027    20.452     6.499
    29   6 C        2.918    -0.079    29.984     8.979
    30   6 C        3.719    -0.077    22.087     6.713
    31   6 C        3.853    -0.007    20.674     6.467
    32   6 C        3.756    -0.118    22.812     6.810
    33   6 C        3.755    -0.119    22.839     6.814
    34   1 H        0.926     0.054     2.271     2.357
    35   1 H        0.924     0.055     2.261     2.351
    36   1 H        0.925     0.082     1.962     2.190
    37   1 H        0.924     0.049     2.336     2.390
    38   1 H        0.924     0.056     2.241     2.341
    39   1 H        0.925     0.082     1.960     2.189
    40   1 H        0.924     0.049     2.333     2.389
    41   1 H        0.926     0.053     2.278     2.360
    42   1 H        0.926     0.042     2.426     2.436
    43   1 H        0.925     0.057     2.238     2.339
    44   1 H        0.924     0.053     2.281     2.362
    45   1 H        0.925     0.057     2.235     2.338
    46   1 H        0.923     0.066     2.128     2.281
    47   1 H        0.923     0.016     2.802     2.618
    48   1 H        0.926     0.057     2.228     2.334
    49   1 H        0.927     0.061     2.192     2.315
    50   1 H        0.926     0.058     2.218     2.329
    51   1 H        0.926     0.050     2.317     2.381
    52   1 H        0.926     0.047     2.361     2.403
    53   1 H        0.926     0.057     2.232     2.336
    54   1 H        0.926     0.060     2.202     2.321
    55   1 H        0.924     0.059     2.210     2.325
    56   1 H        0.924     0.062     2.173     2.305
    57   1 H        0.925     0.086     1.916     2.165
    58   1 H        0.925     0.082     1.962     2.190
    59   1 H        0.924     0.048     2.349     2.397
    60   1 H        0.924     0.054     2.267     2.355
    61   1 H        0.926     0.053     2.285     2.364
    62   1 H        0.925     0.083     1.948     2.183
    63   1 H        0.924     0.083     1.951     2.184
    64   1 H        0.925     0.084     1.938     2.177
    65   1 H        0.924     0.038     2.478     2.462
    66   1 H        0.925     0.069     2.098     2.265
    67   1 H        0.925     0.035     2.517     2.481
    68   1 H        0.925     0.051     2.304     2.374
    69   1 H        0.925     0.063     2.159     2.298
    70   1 H        0.925     0.037     2.493     2.469
    71   1 H        0.925     0.055     2.264     2.353
    72   1 H        0.860     0.159     1.340     1.813

Wiberg/Mayer (AO) data.
largest (>0.10) Wiberg bond orders for each atom

     #   Z sym  total        # sym  WBO       # sym  WBO       # sym  WBO
 ---------------------------------------------------------------------------
     1   7 N    3.021 --     2 C    1.957    72 H    0.940
     2   6 C    3.932 --     1 N    1.957     3 C    0.992    47 H    0.909
     3   6 C    3.970 --     2 C    0.992     4 C    0.973    14 C    0.953
                            31 C    0.943
     4   6 C    3.944 --    13 C    1.409     5 C    1.369     3 C    0.973
     5   6 C    3.959 --     6 C    1.399     4 C    1.369    34 H    0.958
     6   6 C    3.900 --     5 C    1.399     9 C    1.219     7 O    1.101
     7   8 O    2.251 --     6 C    1.101     8 C    0.977
     8   6 C    3.931 --     7 O    0.977    36 H    0.977    35 H    0.973
                            37 H    0.973
     9   6 C    3.895 --    12 C    1.389     6 C    1.219    10 O    1.104
    10   8 O    2.251 --     9 C    1.104    11 C    0.977
    11   6 C    3.930 --    10 O    0.977    39 H    0.977    40 H    0.973
                            38 H    0.973
    12   6 C    3.960 --    13 C    1.406     9 C    1.389    41 H    0.963
    13   6 C    3.948 --     4 C    1.409    12 C    1.406    42 H    0.962
    14   6 C    3.974 --    15 C    0.985    44 H    0.972    43 H    0.968
                             3 C    0.953
    15   6 C    3.986 --    16 C    1.051    14 C    0.985    45 H    0.962
                            46 H    0.938
    16   6 C    3.669 --    17 N    1.348    15 C    1.051    48 H    0.960
                            18 C    0.214
    17   7 N    3.745 --    18 C    1.366    16 C    1.348    30 C    0.985
    18   6 C    3.596 --    17 N    1.366    49 H    0.975    50 H    0.974
                            16 C    0.214
    19   6 C    3.541 --    20 C    1.498    52 H    0.979    51 H    0.979
    20   6 C    3.979 --    19 C    1.498    21 C    1.207    29 C    1.199
    21   6 C    3.807 --    22 C    1.521    20 C    1.207    53 H    0.967
    22   6 C    3.969 --    21 C    1.521    23 C    1.317    54 H    0.961
    23   6 C    3.768 --    22 C    1.317    26 C    1.172    24 O    1.142
    24   8 O    2.257 --    23 C    1.142    25 C    0.971
    25   6 C    3.924 --    57 H    0.976    24 O    0.971    55 H    0.971
                            56 H    0.971
    26   6 C    3.914 --    29 C    1.483    23 C    1.172    27 O    1.098
    27   8 O    2.254 --    26 C    1.098    28 C    0.978
    28   6 C    3.931 --    27 O    0.978    58 H    0.977    59 H    0.974
                            60 H    0.973
    29   6 C    3.854 --    26 C    1.483    20 C    1.199    61 H    0.962
    30   6 C    3.955 --    17 N    0.985    64 H    0.977    62 H    0.970
                            63 H    0.964
    31   6 C    3.969 --    33 C    1.008    32 C    1.008    65 H    0.958
                             3 C    0.943
    32   6 C    3.976 --    31 C    1.008    67 H    0.981    68 H    0.981
                            66 H    0.973
    33   6 C    3.978 --    31 C    1.008    70 H    0.982    71 H    0.979
                            69 H    0.974
    34   1 H    0.996 --     5 C    0.958
    35   1 H    0.993 --     8 C    0.973
    36   1 H    0.993 --     8 C    0.977
    37   1 H    0.993 --     8 C    0.973
    38   1 H    0.992 --    11 C    0.973
    39   1 H    0.993 --    11 C    0.977
    40   1 H    0.993 --    11 C    0.973
    41   1 H    0.995 --    12 C    0.963
    42   1 H    0.997 --    13 C    0.962
    43   1 H    0.995 --    14 C    0.968
    44   1 H    0.996 --    14 C    0.972
    45   1 H    0.996 --    15 C    0.962
    46   1 H    0.975 --    15 C    0.938
    47   1 H    0.978 --     2 C    0.909
    48   1 H    0.996 --    16 C    0.960
    49   1 H    0.996 --    18 C    0.975
    50   1 H    0.997 --    18 C    0.974
    51   1 H    0.997 --    19 C    0.979
    52   1 H    0.997 --    19 C    0.979
    53   1 H    0.996 --    21 C    0.967
    54   1 H    0.994 --    22 C    0.961
    55   1 H    0.989 --    25 C    0.971
    56   1 H    0.989 --    25 C    0.971
    57   1 H    0.992 --    25 C    0.976
    58   1 H    0.993 --    28 C    0.977
    59   1 H    0.994 --    28 C    0.974
    60   1 H    0.993 --    28 C    0.973
    61   1 H    0.996 --    29 C    0.962
    62   1 H    0.993 --    30 C    0.970
    63   1 H    0.993 --    30 C    0.964
    64   1 H    0.993 --    30 C    0.977
    65   1 H    0.990 --    31 C    0.958
    66   1 H    0.990 --    32 C    0.973
    67   1 H    0.996 --    32 C    0.981
    68   1 H    0.993 --    32 C    0.981
    69   1 H    0.991 --    33 C    0.974
    70   1 H    0.996 --    33 C    0.982
    71   1 H    0.993 --    33 C    0.979
    72   1 H    0.967 --     1 N    0.940
 ---------------------------------------------------------------------------

molecular dipole:
                 x           y           z       tot (Debye)
 q only:        1.076      -0.080      -0.505
   full:        1.467      -0.189      -0.632       4.087

           -------------------------------------------------
          | TOTAL ENERGY              -99.327786998861 Eh   |
          | GRADIENT NORM               0.002301785096 Eh/α |
          | HOMO-LUMO GAP               0.724213792146 eV   |
           -------------------------------------------------

 * finished run on 2024/04/06 at 11:15:12.389
