   * xtb version 6.6.1 (8d0f1dd) compiled by 'conda@1efc2f54142f' on 2023-08-01
          program call               : xtb struc.xyz --opt loose --input .xc1 --gfn2

   ID    Z sym.   atoms
    1    6 C      1, 3, 5-7, 10, 11, 14
    2    7 N      2, 4, 9, 13
    3    8 O      8, 12
    4    1 H      15-25
constraining bond 7 19 to    3.7133300 Å, actual value:    2.4428892 Å

          :  Hamiltonian                  GFN2-xTB          :
 * total energy  :   -45.1297428 Eh     change       -0.6650680E-10 Eh
 * total energy  :   -49.3327269 Eh     change       -0.4202984E+01 Eh
 * total energy  :   -55.3506920 Eh     change       -0.6017965E+01 Eh
 * total energy  :   -56.9697365 Eh     change       -0.1619044E+01 Eh
 * total energy  :   -58.3498231 Eh     change       -0.1380087E+01 Eh
 * total energy  :   -58.9210345 Eh     change       -0.5712114E+00 Eh
 * total energy  :   -58.4014687 Eh     change        0.5195658E+00 Eh
 * total energy  :   -59.3977014 Eh     change       -0.9962327E+00 Eh
 * total energy  :   -59.4906991 Eh     change       -0.9299772E-01 Eh
 * total energy  :   -59.5213819 Eh     change       -0.3068282E-01 Eh
 * total energy  :   -59.7431560 Eh     change       -0.4158322E-03 Eh
 * total energy  :   -59.7434006 Eh     change       -0.2446034E-03 Eh
 * total energy  :   -59.7435446 Eh     change       -0.1440687E-03 Eh
 * total energy  :   -59.7436280 Eh     change       -0.8340970E-04 Eh
 * total energy  :   -59.7436902 Eh     change       -0.6220202E-04 Eh
 * total energy  :   -59.7437335 Eh     change       -0.4320822E-04 Eh
 * total energy  :   -59.7437682 Eh     change       -0.3472497E-04 Eh
 * total energy  :   -59.7437874 Eh     change       -0.1920379E-04 Eh
 * total energy  :   -59.7438128 Eh     change       -0.2544712E-04 Eh
   *** GEOMETRY OPTIMIZATION CONVERGED AFTER 60 ITERATIONS ***

 final structure:
================
25
 xtb: 6.6.1 (8d0f1dd)
C            3.48631896976470        1.05760748259815        0.02068810456543
N            2.43557973073771        0.07635736381365       -0.00085338897740
C            2.58650048574824       -1.25628353699801       -0.02847559892459
N            1.36752787599610       -1.83415296081478       -0.03010427642599
C            0.40173176770283       -0.84613539798944        0.00035637320309
C            1.08103421417178        0.37484731920074        0.02134247667228
C           -0.55706393316920        2.20570361769071        0.07928676942203
O            0.73826094448521        1.64795343153637        0.05455089221058
N           -1.58622315715643        1.26655192953377        0.02623714217410
C           -3.03727060431402        1.41048090094537       -0.02541517844336
C           -1.78639504243062       -0.05324674134316        0.02102554809900
O           -3.16072098725547       -0.01444696559983       -0.03548801988195
N           -0.94319334269361       -1.10150692586438       -0.00426394360870
C           -1.47250830231625       -2.45080537437817       -0.01593135664627
H            3.85991448142472        1.19585916251974        1.03765481291714
H            4.30555717923469        0.73640525725206       -0.61976796505206
H            3.08818599361932        2.00550388279053       -0.33717778193038
H            3.52072059170781       -1.77482039518852       -0.05119303484926
H           -0.60205490818653        2.62659355505531        0.10467456300641
H           -3.40782459326730        1.86573563622794       -0.94460332081067
H           -3.48475094625929        1.86494697961813        0.86011025074177
H           -1.15157335275693       -2.99573293406461        0.87302897259366
H           -1.15309971669108       -2.98022958113590       -0.91504799790037
H           -2.55830979638239       -2.38421490485072       -0.01452285595787
H            1.19008796238832       -2.82473225895637       -0.04493956829784

          :  Hamiltonian                  GFN2-xTB          :
         :: total energy             -59.743812834613 Eh    ::
         :: gradient norm              0.003833922671 Eh/a0 ::
         :: HOMO-LUMO gap              1.853262061455 eV    ::
         :: SCC energy               -42.651665313509 Eh    ::
         :: -> dispersion             -0.022183221834 Eh    ::
         :: repulsion energy           2.226095233935 Eh    ::

    * Orbital Energies and Occupations

         #    Occupation            Energy/Eh            Energy/eV
      -------------------------------------------------------------
         1        2.0000           -0.8941193             -24.3302
       ...           ...                  ...                  ...
        25        2.0000           -0.6691860             -18.2095
        26        2.0000           -0.6643138             -18.0769
        27        2.0000           -0.6521205             -17.7451
        28        2.0000           -0.6388708             -17.3846
        29        2.0000           -0.6268373             -17.0571
        30        2.0000           -0.6237412             -16.9729
        31        2.0000           -0.6223623             -16.9353
        32        2.0000           -0.6215955             -16.9145
        33        2.0000           -0.6142974             -16.7159
        34        2.0000           -0.5962123             -16.2238
        35        1.9999           -0.5829745             -15.8635
        36        1.9953           -0.5171770             -14.0731
        37        1.7863           -0.4549380             -12.3795 (HOMO)
        38        0.2035           -0.3868319             -10.5262 (LUMO)
        39        0.0133           -0.3420280              -9.3071
        40        0.0017           -0.3097494              -8.4287
        41        0.0000           -0.2188599              -5.9555
        42        0.0000           -0.1945608              -5.2943
        43        0.0000           -0.1717443              -4.6734
        44                         -0.1446836              -3.9370
        45                         -0.1129382              -3.0732
        46                         -0.1101826              -2.9982
        47                         -0.0883343              -2.4037
        48                         -0.0309813              -0.8430
       ...                                ...                  ...
        67                         10.2694600             279.4462
      -------------------------------------------------------------
                  HL-Gap            0.0681061 Eh            1.8533 eV

     #   Z          covCN         q      C6AA      α(0)
     1   6 C        3.691    -0.079    22.202     6.743
     2   7 N        2.830     0.022    20.856     6.783
     3   6 C        2.987     0.027    27.397     8.586
     4   7 N        2.786    -0.082    22.824     7.095
     5   6 C        3.016     0.039    27.106     8.540
     6   6 C        2.933     0.138    24.984     8.197
     7   6 C        2.699    -0.020    28.472     8.733
     8   8 O        1.706    -0.218    17.619     5.667
     9   7 N        2.803    -0.079    22.768     7.087
    10   6 C        4.244     0.138    18.279     6.072
    11   6 C        3.367     0.205    21.000     7.174
    12   8 O        1.768    -0.260    18.294     5.776
    13   7 N        2.731    -0.035    21.917     6.953
    14   6 C        3.700    -0.068    21.978     6.704
    15   1 H        0.924     0.097     1.812     2.105
    16   1 H        0.925     0.095     1.827     2.114
    17   1 H        0.925     0.109     1.703     2.041
    18   1 H        0.927     0.108     1.710     2.045
    19   1 H        0.938     0.161     1.316     1.794
    20   1 H        0.924     0.104     1.749     2.068
    21   1 H        0.924     0.104     1.752     2.070
    22   1 H        0.924     0.082     1.955     2.187
    23   1 H        0.924     0.083     1.952     2.185
    24   1 H        0.925     0.109     1.704     2.042
    25   1 H        0.860     0.218     1.020     1.582

Wiberg/Mayer (AO) data.
largest (>0.10) Wiberg bond orders for each atom

     #   Z sym  total        # sym  WBO       # sym  WBO       # sym  WBO
 ---------------------------------------------------------------------------
     1   6 C    3.934 --     2 N    0.990    16 H    0.972    17 H    0.970
                            15 H    0.962
     2   7 N    3.583 --     3 C    1.299     6 C    1.120     1 C    0.990
     3   6 C    3.750 --     2 N    1.299     4 N    1.267    18 H    0.957
     4   7 N    3.499 --     3 C    1.267     5 C    1.129    25 H    0.924
     5   6 C    3.857 --     6 C    1.311     4 N    1.129    13 N    1.116
     6   6 C    3.872 --     5 C    1.311     8 O    1.132     2 N    1.120
     7   6 C    3.473 --     9 N    1.127     8 O    0.981    19 H    0.958
                            11 C    0.192
     8   8 O    2.363 --     6 C    1.132     7 C    0.981
     9   7 N    3.551 --    11 C    1.231     7 C    1.127    10 C    0.968
    10   6 C    3.906 --     9 N    0.968    12 O    0.962    21 H    0.958
                            20 H    0.957
    11   6 C    3.776 --     9 N    1.231    13 N    1.175    12 O    1.011
                             7 C    0.192
    12   8 O    2.139 --    11 C    1.011    10 C    0.962
    13   7 N    3.535 --    11 C    1.175     5 C    1.116    14 C    0.973
    14   6 C    3.936 --    13 N    0.973    22 H    0.973    24 H    0.973
                            23 H    0.973
    15   1 H    0.985 --     1 C    0.962
    16   1 H    0.988 --     1 C    0.972
    17   1 H    0.987 --     1 C    0.970
    18   1 H    0.987 --     3 C    0.957
    19   1 H    0.974 --     7 C    0.958
    20   1 H    0.987 --    10 C    0.957
    21   1 H    0.988 --    10 C    0.958
    22   1 H    0.991 --    14 C    0.973
    23   1 H    0.991 --    14 C    0.973
    24   1 H    0.988 --    14 C    0.973
    25   1 H    0.953 --     4 N    0.924
 ---------------------------------------------------------------------------

molecular dipole:
                 x           y           z       tot (Debye)
 q only:        1.002      -0.756      -0.018
   full:        0.946      -1.042      -0.018       3.577

           -------------------------------------------------
          | TOTAL ENERGY              -59.743812834613 Eh   |
          | GRADIENT NORM               0.003833922671 Eh/α |
          | HOMO-LUMO GAP               1.853262061455 eV   |
           -------------------------------------------------

 * finished run on 2024/06/05 at 19:59:27.156
