   * xtb version 6.6.1 (8d0f1dd) compiled by 'conda@1efc2f54142f' on 2023-08-01
          program call               : xtb struc.xyz --opt loose --input .xc1 --gfn2

   ID    Z sym.   atoms
    1    6 C      1, 3, 5-7, 10, 11, 14
    2    7 N      2, 4, 9, 13
    3    8 O      8, 12
    4    1 H      15-25
constraining bond 4 14 to    5.9200000 Å, actual value:    2.9945428 Å

          :  Hamiltonian                  GFN2-xTB          :
 * total energy  :   -26.9667393 Eh     change       -0.6650680E-10 Eh
 * total energy  :   -32.0912450 Eh     change       -0.5124506E+01 Eh
 * total energy  :   -35.6750110 Eh     change       -0.3583766E+01 Eh
 * total energy  :   -38.4039274 Eh     change       -0.2728916E+01 Eh
 * total energy  :   -40.4145885 Eh     change       -0.2010661E+01 Eh
 * total energy  :   -41.3628705 Eh     change       -0.9482820E+00 Eh
 * total energy  :   -41.5537897 Eh     change       -0.1909192E+00 Eh
 * total energy  :   -41.5829423 Eh     change       -0.2915268E-01 Eh
 * total energy  :   -41.6166648 Eh     change       -0.3372251E-01 Eh
 * total energy  :   -41.6395534 Eh     change       -0.2288854E-01 Eh
 * total energy  :   -42.1167735 Eh     change       -0.8330382E-03 Eh
 * total energy  :   -42.1181714 Eh     change       -0.1397903E-02 Eh
 * total energy  :   -42.1188625 Eh     change       -0.6911076E-03 Eh
 * total energy  :   -42.1196172 Eh     change       -0.7546891E-03 Eh
 * total energy  :   -42.1200973 Eh     change       -0.4800965E-03 Eh
 * total energy  :   -42.1204412 Eh     change       -0.3438863E-03 Eh
 * total energy  :   -42.1205210 Eh     change       -0.7981260E-04 Eh
 * total energy  :   -42.1206027 Eh     change       -0.8173599E-04 Eh
 * total energy  :   -42.1206291 Eh     change       -0.2640227E-04 Eh
   *** GEOMETRY OPTIMIZATION CONVERGED AFTER 54 ITERATIONS ***

 final structure:
================
25
 xtb: 6.6.1 (8d0f1dd)
C            3.31194031493814        1.44570830079066        0.02420003440268
N            2.60623680676500        0.18740280965475       -0.00307983932251
C            3.28516427992937       -0.99850221940573       -0.02257296613329
N            2.77962121867529       -2.14961294863498       -0.03395301091481
C            0.70464124435681       -1.20220836421711       -0.00573821566934
C            1.24128586300888        0.03654904902095        0.00190776648671
C            0.23575519958044        1.12280681540714        0.00262902011839
O            0.50541991746453        2.29761953254124        0.00105888348055
N           -1.08907638637712        0.66986248123504        0.00202475034601
C           -2.14552109125581        1.66934310352562       -0.00185935354839
C           -1.44278478926932       -0.64352900918580        0.00089552250013
O           -2.71650502220396       -0.89994284690547        0.00553940103279
N           -0.52916383177260       -1.59281384575256       -0.00565576975988
C           -3.13895607612809       -2.26458591062330        0.00812267957662
H            3.87983196306230        1.53958673435258        0.95208447341929
H            4.00295040543886        1.50503095049785       -0.81802487624359
H            2.60038681869459        2.26714566151008       -0.03799261845936
H            4.36834980203930       -0.93380599706986       -0.02891106003893
H           -1.68122277168511        2.65391399494117        0.00370590910675
H           -2.76158740413963        1.55288313494194       -0.89295752466354
H           -2.77380553587627        1.54788444664501        0.87979922958052
H           -2.77827279385142       -2.77555080280979        0.90135639122010
H           -2.77277235830703       -2.78165093989210       -0.87915545760011
H           -4.22800723143311       -2.22917494182760        0.00409184134875
H            1.69652297244577       -2.20612064714009       -0.02634359236577

          :  Hamiltonian                  GFN2-xTB          :
         :: total energy             -42.120629118747 Eh    ::
         :: gradient norm              0.002722669942 Eh/a0 ::
         :: HOMO-LUMO gap              1.564665789351 eV    ::
         :: SCC energy               -42.639818406103 Eh    ::
         :: -> dispersion             -0.021541686275 Eh    ::
         :: repulsion energy           0.519150395000 Eh    ::

    * Orbital Energies and Occupations

         #    Occupation            Energy/Eh            Energy/eV
      -------------------------------------------------------------
         1        2.0000           -0.9206956             -25.0534
       ...           ...                  ...                  ...
        25        1.9999           -0.6688509             -18.2004
        26        1.9999           -0.6654950             -18.1090
        27        1.9994           -0.6430074             -17.4971
        28        1.9991           -0.6365365             -17.3210
        29        1.9988           -0.6310416             -17.1715
        30        1.9984           -0.6268975             -17.0587
        31        1.9975           -0.6197179             -16.8634
        32        1.9949           -0.6084006             -16.5554
        33        1.9927           -0.6028166             -16.4035
        34        1.9845           -0.5907213             -16.0743
        35        1.9795           -0.5862948             -15.9539
        36        1.9725           -0.5815750             -15.8255
        37        1.7524           -0.5449209             -14.8281 (HOMO)
        38        0.3156           -0.4874204             -13.2634 (LUMO)
        39        0.0117           -0.4326431             -11.7728
        40        0.0029           -0.4106964             -11.1756
        41        0.0005           -0.3824824             -10.4079
        42        0.0000           -0.2952736              -8.0348
        43                         -0.2014900              -5.4828
        44                         -0.1633584              -4.4452
        45                         -0.1388614              -3.7786
        46                         -0.0745563              -2.0288
        47                         -0.0259737              -0.7068
        48                         -0.0245152              -0.6671
       ...                                ...                  ...
        67                          0.5271632              14.3448
      -------------------------------------------------------------
                  HL-Gap            0.0575004 Eh            1.5647 eV

     #   Z          covCN         q      C6AA      α(0)
     1   6 C        3.694    -0.085    22.307     6.757
     2   7 N        2.745     0.019    20.918     6.793
     3   6 C        2.815     0.118    25.387     8.255
     4   7 N        1.799    -0.222    26.664     7.649
     5   6 C        2.586     0.066    26.546     8.424
     6   6 C        2.943     0.018    27.599     8.616
     7   6 C        2.786     0.277    22.319     7.738
     8   8 O        0.858    -0.339    20.506     6.071
     9   7 N        2.742    -0.055    22.299     7.013
    10   6 C        3.703    -0.070    21.999     6.706
    11   6 C        2.851     0.303    21.864     7.664
    12   8 O        1.706    -0.172    16.901     5.551
    13   7 N        1.834    -0.209    26.380     7.611
    14   6 C        3.654     0.001    20.863     6.558
    15   1 H        0.924     0.099     1.795     2.095
    16   1 H        0.924     0.098     1.802     2.099
    17   1 H        0.925     0.128     1.549     1.946
    18   1 H        0.925     0.139     1.471     1.896
    19   1 H        0.925     0.125     1.574     1.962
    20   1 H        0.925     0.103     1.753     2.071
    21   1 H        0.925     0.104     1.751     2.070
    22   1 H        0.924     0.098     1.802     2.099
    23   1 H        0.924     0.098     1.801     2.099
    24   1 H        0.925     0.118     1.632     1.998
    25   1 H        1.358     0.239     0.916     1.494

Wiberg/Mayer (AO) data.
largest (>0.10) Wiberg bond orders for each atom

     #   Z sym  total        # sym  WBO       # sym  WBO       # sym  WBO
 ---------------------------------------------------------------------------
     1   6 C    3.906 --     2 N    0.987    16 H    0.960    15 H    0.957
                            17 H    0.954
     2   7 N    3.525 --     3 C    1.179     6 C    1.145     1 C    0.987
                             4 N    0.113
     3   6 C    3.946 --     4 N    1.787     2 N    1.179    18 H    0.905
     4   7 N    2.896 --     3 C    1.787    25 H    0.635     5 C    0.202
                             2 N    0.113
     5   6 C    3.660 --     6 C    1.478    13 N    1.446    25 H    0.281
                             4 N    0.202
     6   6 C    3.901 --     5 C    1.478     2 N    1.145     7 C    1.008
     7   6 C    3.931 --     8 O    1.693     9 N    1.099     6 C    1.008
     8   8 O    2.066 --     7 C    1.693     9 N    0.137
     9   7 N    3.590 --    11 C    1.203     7 C    1.099    10 C    0.965
                             8 O    0.137
    10   6 C    3.901 --     9 N    0.965    19 H    0.964    21 H    0.962
                            20 H    0.962
    11   6 C    3.912 --    13 N    1.311    12 O    1.221     9 N    1.203
    12   8 O    2.364 --    11 C    1.221    14 C    0.924
    13   7 N    3.095 --     5 C    1.446    11 C    1.311
    14   6 C    3.865 --    24 H    0.971    23 H    0.967    22 H    0.967
                            12 O    0.924
    15   1 H    0.974 --     1 C    0.957
    16   1 H    0.977 --     1 C    0.960
    17   1 H    0.980 --     1 C    0.954
    18   1 H    0.961 --     3 C    0.905
    19   1 H    0.983 --    10 C    0.964
    20   1 H    0.985 --    10 C    0.962
    21   1 H    0.985 --    10 C    0.962
    22   1 H    0.985 --    14 C    0.967
    23   1 H    0.985 --    14 C    0.967
    24   1 H    0.984 --    14 C    0.971
    25   1 H    0.942 --     4 N    0.635     5 C    0.281
 ---------------------------------------------------------------------------

molecular dipole:
                 x           y           z       tot (Debye)
 q only:        0.274      -0.742       0.007
   full:        0.367      -0.543       0.014       1.665

           -------------------------------------------------
          | TOTAL ENERGY              -42.120629118747 Eh   |
          | GRADIENT NORM               0.002722669942 Eh/α |
          | HOMO-LUMO GAP               1.564665789351 eV   |
           -------------------------------------------------

 * finished run on 2024/06/05 at 19:58:19.714
