   * xtb version 6.6.1 (8d0f1dd) compiled by 'conda@1efc2f54142f' on 2023-08-01
          program call               : xtb struc.xyz --opt loose --input .xc1 --gfn2

   ID    Z sym.   atoms
    1    7 N      1, 17
    2    6 C      2-6, 8, 9, 11-16, 18-23, 25, 26, 28-33
    3    8 O      7, 10, 24, 27
    4    1 H      34-72
constraining bond 23 57 to    3.7133300 Å, actual value:    3.2412589 Å

          :  Hamiltonian                  GFN2-xTB          :
 * total energy  :   -99.4439217 Eh     change       -0.4035485E-08 Eh
 * total energy  :   -99.5219787 Eh     change       -0.7805703E-01 Eh
 * total energy  :   -99.5891303 Eh     change       -0.6715156E-01 Eh
 * total energy  :   -99.6143084 Eh     change       -0.2517812E-01 Eh
 * total energy  :   -99.6789060 Eh     change       -0.6459759E-01 Eh
 * total energy  :   -99.7687044 Eh     change       -0.8979836E-01 Eh
 * total energy  :   -99.9930753 Eh     change       -0.2243709E+00 Eh
 * total energy  :  -100.2674515 Eh     change       -0.2743762E+00 Eh
 * total energy  :   -99.8250945 Eh     change        0.4423569E+00 Eh
 * total energy  :  -100.3519749 Eh     change       -0.5268804E+00 Eh
 * total energy  :  -100.7795491 Eh     change       -0.8845372E-04 Eh
 * total energy  :  -100.7796395 Eh     change       -0.9037966E-04 Eh
 * total energy  :  -100.7797229 Eh     change       -0.8347765E-04 Eh
 * total energy  :  -100.7798269 Eh     change       -0.1039699E-03 Eh
 * total energy  :  -100.7798784 Eh     change       -0.5149300E-04 Eh
 * total energy  :  -100.7799345 Eh     change       -0.5611183E-04 Eh
 * total energy  :  -100.7799469 Eh     change       -0.1238268E-04 Eh
 * total energy  :  -100.7800150 Eh     change       -0.6810376E-04 Eh
 * total energy  :  -100.7800393 Eh     change       -0.2429364E-04 Eh
   *** GEOMETRY OPTIMIZATION CONVERGED AFTER 61 ITERATIONS ***

 final structure:
================
72
 xtb: 6.6.1 (8d0f1dd)
N           -1.78188966004024        2.85274665414723        2.25857281039665
C           -1.74943885399903        2.14128205180862        1.23321931972523
C           -2.90786214399339        1.94046052235818        0.29488286946512
C           -3.38793183282078        0.50010932528678        0.37716392677952
C           -4.27852307347400        0.00999011037753       -0.58017763873826
C           -4.76704187424321       -1.28448640233450       -0.51886790395234
O           -5.62485401659732       -1.83585017149524       -1.40166336589234
C           -6.14579964846919       -1.04538928283707       -2.44421813630037
C           -4.35855395034725       -2.13729553016363        0.54264681486402
O           -4.88948100348171       -3.37544557556547        0.52817860443430
C           -4.61385978080212       -4.25254056534502        1.59586545859271
C           -3.47394066174210       -1.64439694301011        1.48900241692466
C           -2.99490352089552       -0.34300202559680        1.40539931767580
C           -2.35967230473746        2.24817919995755       -1.12292876932231
C           -1.45574819662910        1.14950346419712       -1.71209250662730
C           -0.11100618405408        1.08365255525457       -1.09825883195156
N            0.50591919212976       -0.02347521855824       -0.71322143191037
C            1.91326520740607       -0.00761287631662       -0.38796769793131
C            2.75808535139473       -0.61355543096944       -1.52473984973412
C            4.22077144845149       -0.43985374367207       -1.22122576803773
C            4.88544599792385        0.71023210510408       -1.62279898236465
C            6.22803540985324        0.87165408323051       -1.32308860359543
C            6.94697361810272       -0.08639361163047       -0.62256856304112
O            7.34062876601374        2.54080099628675        1.24841372425395
C            8.49509953450659        2.84804864691985        1.33312652406932
C            6.25769298794990       -1.24969365747447       -0.21577059224238
O            7.01358879657472       -2.14845811416574        0.45194619872957
C            6.43596717080832       -3.35336859146888        0.89548454135781
C            4.90677919746209       -1.41534293220491       -0.51065299984329
C           -0.15912868060532       -1.30464347209195       -0.68854565054901
C           -4.12192555190740        2.86753013208386        0.60412435304462
C           -4.74538311283079        2.54250075623901        1.95945056029138
C           -3.77492225403297        4.35221068214111        0.53956527900602
H           -4.60686471972823        0.65698520004412       -1.37649177861616
H           -6.69399104491383       -0.18108532168276       -2.05737200994399
H           -6.83201492623102       -1.69308071143153       -2.98613238373136
H           -5.35789762343909       -0.70602022997671       -3.12478236190925
H           -4.93017818549577       -3.82897862361046        2.55363773461123
H           -5.19083073449318       -5.15202528937698        1.39084663054523
H           -3.55025814538091       -4.50746602886426        1.64194046170507
H           -3.15714260471385       -2.26388617102901        2.31217663956330
H           -2.33047239580866        0.01466465270065        2.17671583625032
H           -3.20053791541622        2.39220968048568       -1.80048688523235
H           -1.80311710462715        3.18550098890908       -1.08732433086102
H           -1.96679638595697        0.18965282398932       -1.66656039794357
H           -1.30967875871346        1.40178106028235       -2.77065239215955
H           -0.84242592158896        1.61448718337689        0.87837678649772
H            0.47643547413367        1.99043587186185       -1.09265148755828
H            2.07889383903941       -0.57316720421508        0.53302843695019
H            2.23572350515407        1.02174861333664       -0.22010712789409
H            2.51138338609648       -0.09967971443610       -2.45565130417385
H            2.51922565719698       -1.67142109393240       -1.63964698747016
H            4.36019378090481        1.47159859098281       -2.17902708543426
H            6.73772054208372        1.76878414984095       -1.64113310283978
H            8.86716307038463        3.59256376196135        2.05619313247526
H            9.27556471970994        2.40852077916280        0.69135716636778
H            7.70834501093819       -0.00012604882705       -0.45626728254366
H            7.24136682299581       -3.90700125188968        1.37426793969398
H            5.63993261741892       -3.17078861863075        1.62432779198919
H            6.04187631788713       -3.94113270244773        0.06016607209355
H            4.38322613042026       -2.30743193065847       -0.20268654474196
H           -0.35906857834787       -1.66802020898752       -1.69880041732190
H           -1.10516168123237       -1.23218377491457       -0.14695429112532
H            0.47560822553467       -2.02629832876960       -0.18083238370097
H           -4.87152451027127        2.65969900063683       -0.16844588067086
H           -4.03453309863567        2.74445462089175        2.75432918817350
H           -5.05057251765908        1.50028155428125        2.01346494040198
H           -5.62359034904093        3.16382226444896        2.11394749189072
H           -3.00509145176626        4.59157158214631        1.26659572292683
H           -3.43951074620048        4.64923066585863       -0.45047725579076
H           -4.66026114909182        4.93501245155281        0.77936081812464
H           -0.93100932700000        2.94283013886811        2.80476031643359

          :  Hamiltonian                  GFN2-xTB          :
         :: total energy            -100.780039302862 Eh    ::
         :: gradient norm              0.003669963077 Eh/a0 ::
         :: HOMO-LUMO gap              1.756647104268 eV    ::
         :: SCC energy              -100.786973891192 Eh    ::
         :: -> dispersion             -0.073830818909 Eh    ::
         :: repulsion energy           1.537696658452 Eh    ::

    * Orbital Energies and Occupations

         #    Occupation            Energy/Eh            Energy/eV
      -------------------------------------------------------------
         1        2.0000           -0.8115476             -22.0833
       ...           ...                  ...                  ...
        78        1.9979           -0.5294228             -14.4063
        79        1.9973           -0.5249146             -14.2837
        80        1.9972           -0.5243502             -14.2683
        81        1.9954           -0.5167480             -14.0614
        82        1.9946           -0.5140543             -13.9881
        83        1.9937           -0.5116374             -13.9224
        84        1.9936           -0.5113246             -13.9139
        85        1.9801           -0.4932837             -13.4229
        86        1.9796           -0.4929011             -13.4125
        87        1.9657           -0.4845632             -13.1856
        88        1.9307           -0.4731436             -12.8749
        89        1.8958           -0.4663976             -12.6913
        90        1.8630           -0.4617882             -12.5659 (HOMO)
        91        0.3748           -0.3972326             -10.8092 (LUMO)
        92        0.0281           -0.3531510              -9.6097
        93        0.0131           -0.3409218              -9.2770
        94        0.0033           -0.3190731              -8.6824
        95        0.0028           -0.3164419              -8.6108
        96        0.0027           -0.3160405              -8.5999
        97        0.0012           -0.3034233              -8.2566
        98        0.0000           -0.1934859              -5.2650
        99        0.0000           -0.1854893              -5.0474
       100                         -0.1372049              -3.7335
       101                         -0.0708285              -1.9273
       ...                                ...                  ...
       171                          1.2361884              33.6384
      -------------------------------------------------------------
                  HL-Gap            0.0645556 Eh            1.7566 eV

     #   Z          covCN         q      C6AA      α(0)
     1   7 N        1.774    -0.266    27.723     7.797
     2   6 C        2.827     0.102    25.741     8.314
     3   6 C        3.907     0.006    20.412     6.422
     4   6 C        2.974     0.002    27.975     8.676
     5   6 C        2.920    -0.081    30.017     8.984
     6   6 C        2.862     0.129    25.162     8.222
     7   8 O        1.706    -0.229    17.796     5.696
     8   6 C        3.644     0.027    20.453     6.501
     9   6 C        2.864     0.129    25.173     8.224
    10   8 O        1.706    -0.227    17.768     5.691
    11   6 C        3.645     0.026    20.467     6.502
    12   6 C        2.913    -0.074    29.850     8.959
    13   6 C        2.921    -0.053    29.313     8.879
    14   6 C        3.812    -0.065    21.733     6.636
    15   6 C        3.802    -0.070    21.835     6.653
    16   6 C        2.843     0.010    27.792     8.640
    17   7 N        2.729     0.016    20.976     6.802
    18   6 C        3.756    -0.017    20.930     6.523
    19   6 C        3.808    -0.071    21.843     6.653
    20   6 C        2.973     0.011    27.773     8.644
    21   6 C        2.918    -0.046    29.141     8.852
    22   6 C        2.921    -0.022    28.544     8.761
    23   6 C        2.914    -0.068    29.693     8.936
    24   8 O        0.856    -0.279    19.403     5.906
    25   6 C        2.701     0.179    24.140     8.042
    26   6 C        2.866     0.150    24.741     8.153
    27   8 O        1.706    -0.241    18.001     5.728
    28   6 C        3.643     0.030    20.421     6.497
    29   6 C        2.917    -0.075    29.859     8.961
    30   6 C        3.700    -0.071    22.032     6.712
    31   6 C        3.853    -0.007    20.667     6.466
    32   6 C        3.756    -0.119    22.833     6.813
    33   6 C        3.755    -0.119    22.836     6.814
    34   1 H        0.926     0.052     2.289     2.366
    35   1 H        0.924     0.055     2.264     2.353
    36   1 H        0.925     0.082     1.959     2.189
    37   1 H        0.924     0.047     2.356     2.401
    38   1 H        0.924     0.056     2.247     2.344
    39   1 H        0.925     0.082     1.959     2.189
    40   1 H        0.924     0.049     2.330     2.387
    41   1 H        0.926     0.053     2.277     2.360
    42   1 H        0.926     0.041     2.439     2.442
    43   1 H        0.925     0.061     2.187     2.313
    44   1 H        0.924     0.055     2.261     2.351
    45   1 H        0.925     0.067     2.121     2.277
    46   1 H        0.923     0.082     1.962     2.191
    47   1 H        0.922     0.006     2.954     2.688
    48   1 H        0.926     0.072     2.060     2.244
    49   1 H        0.924     0.069     2.097     2.265
    50   1 H        0.924     0.071     2.071     2.250
    51   1 H        0.924     0.054     2.266     2.354
    52   1 H        0.924     0.055     2.262     2.352
    53   1 H        0.926     0.042     2.425     2.435
    54   1 H        0.926     0.057     2.232     2.336
    55   1 H        0.923     0.055     2.263     2.352
    56   1 H        0.923     0.050     2.315     2.379
    57   1 H        0.930     0.107     1.723     2.053
    58   1 H        0.925     0.077     2.007     2.215
    59   1 H        0.924     0.047     2.353     2.399
    60   1 H        0.924     0.050     2.319     2.382
    61   1 H        0.926     0.040     2.446     2.446
    62   1 H        0.924     0.077     2.008     2.216
    63   1 H        0.924     0.080     1.976     2.198
    64   1 H        0.925     0.081     1.966     2.193
    65   1 H        0.924     0.038     2.480     2.463
    66   1 H        0.925     0.070     2.091     2.261
    67   1 H        0.925     0.036     2.506     2.476
    68   1 H        0.925     0.052     2.294     2.368
    69   1 H        0.925     0.062     2.181     2.309
    70   1 H        0.925     0.035     2.511     2.478
    71   1 H        0.925     0.055     2.253     2.347
    72   1 H        0.860     0.159     1.339     1.813

Wiberg/Mayer (AO) data.
largest (>0.10) Wiberg bond orders for each atom

     #   Z sym  total        # sym  WBO       # sym  WBO       # sym  WBO
 ---------------------------------------------------------------------------
     1   7 N    3.039 --     2 C    1.959    72 H    0.941
     2   6 C    3.931 --     1 N    1.959     3 C    0.994    47 H    0.902
     3   6 C    3.975 --     2 C    0.994     4 C    0.971    14 C    0.958
                            31 C    0.940
     4   6 C    3.947 --    13 C    1.411     5 C    1.368     3 C    0.971
     5   6 C    3.961 --     6 C    1.400     4 C    1.368    34 H    0.958
     6   6 C    3.904 --     5 C    1.400     9 C    1.220     7 O    1.100
     7   8 O    2.254 --     6 C    1.100     8 C    0.978
     8   6 C    3.931 --     7 O    0.978    36 H    0.977    37 H    0.973
                            35 H    0.973
     9   6 C    3.900 --    12 C    1.391     6 C    1.220    10 O    1.104
    10   8 O    2.253 --     9 C    1.104    11 C    0.977
    11   6 C    3.930 --    39 H    0.977    10 O    0.977    40 H    0.973
                            38 H    0.973
    12   6 C    3.961 --    13 C    1.404     9 C    1.391    41 H    0.964
    13   6 C    3.953 --     4 C    1.411    12 C    1.404    42 H    0.963
    14   6 C    3.972 --    15 C    0.980    44 H    0.972    43 H    0.968
                             3 C    0.958
    15   6 C    3.986 --    16 C    1.060    14 C    0.980    45 H    0.961
                            46 H    0.927
    16   6 C    3.609 --    17 N    1.417    15 C    1.060    48 H    0.957
    17   7 N    3.492 --    16 C    1.417    30 C    0.997    18 C    0.986
    18   6 C    3.955 --    17 N    0.986    50 H    0.967    19 C    0.967
                            49 H    0.963
    19   6 C    3.976 --    20 C    1.005    51 H    0.972    52 H    0.972
                            18 C    0.967
    20   6 C    3.965 --    29 C    1.411    21 C    1.403    19 C    1.005
    21   6 C    3.940 --    22 C    1.416    20 C    1.403    53 H    0.968
    22   6 C    3.972 --    23 C    1.466    21 C    1.416    54 H    0.967
    23   6 C    3.940 --    22 C    1.466    26 C    1.312    57 H    0.972
    24   8 O    2.074 --    25 C    1.985
    25   6 C    3.862 --    24 O    1.985    56 H    0.938    55 H    0.938
    26   6 C    3.904 --    29 C    1.360    23 C    1.312    27 O    1.096
    27   8 O    2.242 --    26 C    1.096    28 C    0.980
    28   6 C    3.935 --    27 O    0.980    58 H    0.977    59 H    0.974
                            60 H    0.973
    29   6 C    3.949 --    20 C    1.411    26 C    1.360    61 H    0.963
    30   6 C    3.957 --    17 N    0.997    64 H    0.977    62 H    0.965
                            63 H    0.961
    31   6 C    3.971 --    33 C    1.009    32 C    1.008    65 H    0.960
                             3 C    0.940
    32   6 C    3.977 --    31 C    1.008    67 H    0.981    68 H    0.981
                            66 H    0.973
    33   6 C    3.981 --    31 C    1.009    70 H    0.983    71 H    0.980
                            69 H    0.976
    34   1 H    0.996 --     5 C    0.958
    35   1 H    0.993 --     8 C    0.973
    36   1 H    0.993 --     8 C    0.977
    37   1 H    0.994 --     8 C    0.973
    38   1 H    0.992 --    11 C    0.973
    39   1 H    0.993 --    11 C    0.977
    40   1 H    0.993 --    11 C    0.973
    41   1 H    0.995 --    12 C    0.964
    42   1 H    0.998 --    13 C    0.963
    43   1 H    0.995 --    14 C    0.968
    44   1 H    0.996 --    14 C    0.972
    45   1 H    0.995 --    15 C    0.961
    46   1 H    0.971 --    15 C    0.927
    47   1 H    0.985 --     2 C    0.902
    48   1 H    0.994 --    16 C    0.957
    49   1 H    0.990 --    18 C    0.963
    50   1 H    0.994 --    18 C    0.967
    51   1 H    0.996 --    19 C    0.972
    52   1 H    0.996 --    19 C    0.972
    53   1 H    0.997 --    21 C    0.968
    54   1 H    0.994 --    22 C    0.967
    55   1 H    0.987 --    25 C    0.938
    56   1 H    0.987 --    25 C    0.938
    57   1 H    0.988 --    23 C    0.972
    58   1 H    0.993 --    28 C    0.977
    59   1 H    0.993 --    28 C    0.974
    60   1 H    0.993 --    28 C    0.973
    61   1 H    0.997 --    29 C    0.963
    62   1 H    0.985 --    30 C    0.965
    63   1 H    0.988 --    30 C    0.961
    64   1 H    0.993 --    30 C    0.977
    65   1 H    0.992 --    31 C    0.960
    66   1 H    0.990 --    32 C    0.973
    67   1 H    0.996 --    32 C    0.981
    68   1 H    0.994 --    32 C    0.981
    69   1 H    0.993 --    33 C    0.976
    70   1 H    0.997 --    33 C    0.983
    71   1 H    0.993 --    33 C    0.980
    72   1 H    0.969 --     1 N    0.941
 ---------------------------------------------------------------------------

molecular dipole:
                 x           y           z       tot (Debye)
 q only:        0.468      -0.295      -0.773
   full:        0.921      -0.425      -0.833       3.337

           -------------------------------------------------
          | TOTAL ENERGY             -100.780039302862 Eh   |
          | GRADIENT NORM               0.003669963077 Eh/α |
          | HOMO-LUMO GAP               1.756647104268 eV   |
           -------------------------------------------------

 * finished run on 2024/04/06 at 11:17:11.350
