   * xtb version 6.6.1 (8d0f1dd) compiled by 'conda@1efc2f54142f' on 2023-08-01
          program call               : xtb xtbopt.xyz --opt crude --input .xc2 --gfn2

   ID    Z sym.   atoms
    1    7 N      1, 17
    2    6 C      2-6, 8, 9, 11-16, 18-23, 25, 26, 28-33
    3    8 O      7, 10, 24, 27
    4    1 H      34-72

          :  Hamiltonian                  GFN2-xTB          :
 * total energy  :   -99.2479647 Eh     change       -0.1946887E-11 Eh
 * total energy  :   -99.3545545 Eh     change       -0.1065898E+00 Eh
 * total energy  :   -99.3559217 Eh     change       -0.1367222E-02 Eh
 * total energy  :   -99.3550552 Eh     change        0.8665560E-03 Eh
 * total energy  :   -99.3552023 Eh     change       -0.1471459E-03 Eh
 * total energy  :   -99.3564870 Eh     change       -0.1284673E-02 Eh
 * total energy  :   -99.3565399 Eh     change       -0.5291131E-04 Eh
   *** GEOMETRY OPTIMIZATION CONVERGED AFTER 7 ITERATIONS ***

 final structure:
================
72
 xtb: 6.6.1 (8d0f1dd)
N           -1.78085493648547        2.85652781576702        2.25647638455386
C           -1.75109067219943        2.14267643431254        1.23291995064588
C           -2.90990107476594        1.94250711423087        0.29503566454151
C           -3.39018100986718        0.50222741832693        0.37774026618078
C           -4.28103479613976        0.01140284656527       -0.57904776744808
C           -4.76831752112116       -1.28355996550000       -0.51746779085347
O           -5.62700739242544       -1.83570167900383       -1.39876065200450
C           -6.15124493469865       -1.04603666982251       -2.44020453946935
C           -4.35743213243976       -2.13645405981130        0.54314905941293
O           -4.88557438800351       -3.37590520153484        0.52755840890281
C           -4.60916951255732       -4.25297553344883        1.59480394027284
C           -3.47350235219362       -1.64253393701584        1.48948069056003
C           -2.99634672016391       -0.34041649359323        1.40600178732287
C           -2.36109478656483        2.24950410408375       -1.12271396064957
C           -1.45693894702062        1.15091308175163       -1.71088904608347
C           -0.11379394018055        1.08222056941928       -1.09368285439817
N            0.50185672509523       -0.02666626273221       -0.71095004387138
C            1.90963506962208       -0.01368581334640       -0.38622348243588
C            2.75334046546012       -0.61417600440791       -1.52651337912400
C            4.21807279288564       -0.44296751423938       -1.22612266305947
C            4.88033143822412        0.70897609433920       -1.62768895582156
C            6.22617356553588        0.87441473392869       -1.33603258915131
C            6.91255270563283       -0.09804113133048       -0.64282952898822
O            7.31712462277659        2.56017903644161        1.21414931144197
C            8.47000033034335        2.85462438522118        1.33469096771293
C            6.25557587886970       -1.26116547711890       -0.22288081140902
O            7.01249261192230       -2.15249031087806        0.45008854098594
C            6.43679253334611       -3.35843667989929        0.89466508019739
C            4.90285166302297       -1.42298240896943       -0.51877546004558
C           -0.16485423513127       -1.30691373310094       -0.69039290293009
C           -4.12305562983714        2.87059177632225        0.60427965238705
C           -4.74504516634374        2.54754271746925        1.96067942019649
C           -3.77513567549108        4.35489035597837        0.53786160769756
H           -4.61044343607101        0.65816636744487       -1.37514732326010
H           -6.69857311927234       -0.18174956927497       -2.05234358590385
H           -6.83888288255367       -1.69434536701591       -2.97962132679811
H           -5.36548818251219       -0.70689582992039       -3.12329808360311
H           -4.92824189510223       -3.83122726728903        2.55238837975823
H           -5.18322316509246       -5.15401495947218        1.38805035631120
H           -3.54499279665919       -4.50502931693880        1.64251775616228
H           -3.15561551196910       -2.26170682577116        2.31244890024825
H           -2.33227496528078        0.01793596195105        2.17728711908354
H           -3.20172631620925        2.39333182778524       -1.80056006737905
H           -1.80460043937550        3.18682641472670       -1.08724465150889
H           -1.96927079372551        0.19161872292111       -1.66837150792206
H           -1.30761300896521        1.40458499178317       -2.76857490809425
H           -0.84573245079574        1.61257095004304        0.87834396524689
H            0.47503354984814        1.98812925914277       -1.08511492748485
H            2.07459146599929       -0.58447989590841        0.53172455439308
H            2.23247411480537        1.01455580975223       -0.21197892474089
H            2.50471187377761       -0.09650751486598       -2.45489836943060
H            2.51347197782986       -1.67149747912746       -1.64586750632854
H            4.34898575710582        1.47077586291485       -2.17817526614955
H            6.73727965464940        1.76964356108830       -1.65148579208353
H            8.82701877556384        3.57903123571359        2.08317307126584
H            9.26485170293629        2.41696265127164        0.70904902595228
H            7.95768937269431        0.01363832729997       -0.40961689841039
H            7.24096747019821       -3.90611585505005        1.38235034549844
H            5.63476308380415       -3.17685970883296        1.61716258414818
H            6.05194403539293       -3.95095486275482        0.05898325150717
H            4.37578264785954       -2.31415409653930       -0.21326171240601
H           -0.35734497950300       -1.67111496041267       -1.70188367058667
H           -1.11505352291653       -1.23301159029786       -0.15620053206531
H            0.46481675821426       -2.02899099573755       -0.17677157962938
H           -4.87360112834321        2.66234467366700       -0.16719013443665
H           -4.03371765314076        2.75168006277600        2.75446601099011
H           -5.04898990252244        1.50514365912915        2.01686461416619
H           -5.62363740220040        3.16827719015116        2.11483353921576
H           -3.00742514403947        4.59513988050413        1.26690108956125
H           -3.43623569469001        4.64987534984052       -0.45163984999952
H           -4.66088724400765        4.93886408099109        0.77356069833021
H           -0.92951958781779        2.94560916833592        2.80200189371845

          :  Hamiltonian                  GFN2-xTB          :
         :: total energy             -99.356539914186 Eh    ::
         :: gradient norm              0.001695768206 Eh/a0 ::
         :: HOMO-LUMO gap              1.757703994983 eV    ::
         :: SCC energy              -100.760971608904 Eh    ::
         :: -> dispersion             -0.073816786734 Eh    ::
         :: repulsion energy           1.403109644379 Eh    ::

    * Orbital Energies and Occupations

         #    Occupation            Energy/Eh            Energy/eV
      -------------------------------------------------------------
         1        2.0000           -0.8114778             -22.0814
       ...           ...                  ...                  ...
        78        1.9980           -0.5293701             -14.4049
        79        1.9973           -0.5248174             -14.2810
        80        1.9972           -0.5242873             -14.2666
        81        1.9955           -0.5166585             -14.0590
        82        1.9946           -0.5139910             -13.9864
        83        1.9936           -0.5113452             -13.9144
        84        1.9932           -0.5103734             -13.8880
        85        1.9799           -0.4929859             -13.4148
        86        1.9796           -0.4927264             -13.4078
        87        1.9657           -0.4844415             -13.1823
        88        1.9310           -0.4730731             -12.8730
        89        1.8961           -0.4663100             -12.6889
        90        1.8635           -0.4617078             -12.5637 (HOMO)
        91        0.3752           -0.3971133             -10.8060 (LUMO)
        92        0.0275           -0.3526465              -9.5960
        93        0.0131           -0.3407790              -9.2731
        94        0.0033           -0.3189881              -8.6801
        95        0.0028           -0.3160174              -8.5993
        96        0.0024           -0.3138899              -8.5414
        97        0.0012           -0.3034364              -8.2569
        98        0.0000           -0.1934019              -5.2627
        99        0.0000           -0.1826788              -4.9709
       100                         -0.1372555              -3.7349
       101                         -0.0706396              -1.9222
       ...                                ...                  ...
       171                          0.5758087              15.6686
      -------------------------------------------------------------
                  HL-Gap            0.0645944 Eh            1.7577 eV

     #   Z          covCN         q      C6AA      α(0)
     1   7 N        1.774    -0.266    27.723     7.797
     2   6 C        2.827     0.102    25.740     8.314
     3   6 C        3.907     0.006    20.412     6.422
     4   6 C        2.974     0.002    27.976     8.676
     5   6 C        2.920    -0.081    30.017     8.984
     6   6 C        2.862     0.129    25.162     8.222
     7   8 O        1.706    -0.229    17.797     5.696
     8   6 C        3.644     0.027    20.453     6.501
     9   6 C        2.864     0.129    25.175     8.224
    10   8 O        1.706    -0.227    17.770     5.691
    11   6 C        3.645     0.026    20.466     6.502
    12   6 C        2.913    -0.074    29.850     8.959
    13   6 C        2.921    -0.053    29.313     8.879
    14   6 C        3.812    -0.065    21.733     6.635
    15   6 C        3.802    -0.070    21.833     6.653
    16   6 C        2.843     0.010    27.792     8.640
    17   7 N        2.729     0.015    20.984     6.803
    18   6 C        3.756    -0.017    20.927     6.523
    19   6 C        3.808    -0.070    21.839     6.652
    20   6 C        2.971     0.010    27.793     8.648
    21   6 C        2.923    -0.045    29.108     8.848
    22   6 C        2.917    -0.017    28.440     8.745
    23   6 C        2.920    -0.042    29.048     8.838
    24   8 O        0.856    -0.278    19.392     5.904
    25   6 C        2.701     0.180    24.127     8.040
    26   6 C        2.863     0.154    24.655     8.139
    27   8 O        1.706    -0.240    17.978     5.725
    28   6 C        3.643     0.030    20.418     6.495
    29   6 C        2.920    -0.074    29.839     8.958
    30   6 C        3.700    -0.071    22.028     6.712
    31   6 C        3.853    -0.007    20.667     6.466
    32   6 C        3.756    -0.119    22.833     6.813
    33   6 C        3.755    -0.119    22.836     6.814
    34   1 H        0.926     0.052     2.290     2.366
    35   1 H        0.924     0.054     2.265     2.353
    36   1 H        0.925     0.082     1.960     2.189
    37   1 H        0.924     0.047     2.356     2.400
    38   1 H        0.924     0.056     2.247     2.344
    39   1 H        0.925     0.082     1.960     2.189
    40   1 H        0.924     0.049     2.332     2.388
    41   1 H        0.926     0.053     2.278     2.360
    42   1 H        0.926     0.041     2.439     2.442
    43   1 H        0.925     0.061     2.187     2.313
    44   1 H        0.924     0.055     2.261     2.351
    45   1 H        0.925     0.067     2.121     2.278
    46   1 H        0.924     0.082     1.963     2.191
    47   1 H        0.922     0.006     2.953     2.687
    48   1 H        0.926     0.072     2.061     2.245
    49   1 H        0.924     0.069     2.101     2.267
    50   1 H        0.924     0.071     2.073     2.252
    51   1 H        0.924     0.054     2.270     2.356
    52   1 H        0.924     0.054     2.265     2.354
    53   1 H        0.926     0.042     2.426     2.435
    54   1 H        0.926     0.060     2.196     2.317
    55   1 H        0.923     0.055     2.263     2.353
    56   1 H        0.923     0.050     2.323     2.384
    57   1 H        0.926     0.067     2.114     2.274
    58   1 H        0.925     0.078     2.002     2.213
    59   1 H        0.924     0.048     2.350     2.397
    60   1 H        0.924     0.051     2.312     2.378
    61   1 H        0.926     0.040     2.450     2.448
    62   1 H        0.924     0.077     2.009     2.216
    63   1 H        0.924     0.080     1.977     2.199
    64   1 H        0.925     0.081     1.969     2.194
    65   1 H        0.924     0.038     2.480     2.463
    66   1 H        0.925     0.069     2.092     2.262
    67   1 H        0.925     0.036     2.506     2.476
    68   1 H        0.925     0.052     2.294     2.368
    69   1 H        0.925     0.062     2.180     2.309
    70   1 H        0.925     0.035     2.512     2.478
    71   1 H        0.925     0.055     2.254     2.348
    72   1 H        0.860     0.159     1.339     1.813

Wiberg/Mayer (AO) data.
largest (>0.10) Wiberg bond orders for each atom

     #   Z sym  total        # sym  WBO       # sym  WBO       # sym  WBO
 ---------------------------------------------------------------------------
     1   7 N    3.040 --     2 C    1.959    72 H    0.941
     2   6 C    3.931 --     1 N    1.959     3 C    0.994    47 H    0.902
     3   6 C    3.975 --     2 C    0.994     4 C    0.971    14 C    0.958
                            31 C    0.941
     4   6 C    3.947 --    13 C    1.412     5 C    1.368     3 C    0.971
     5   6 C    3.961 --     6 C    1.400     4 C    1.368    34 H    0.958
     6   6 C    3.904 --     5 C    1.400     9 C    1.220     7 O    1.100
     7   8 O    2.254 --     6 C    1.100     8 C    0.978
     8   6 C    3.932 --     7 O    0.978    36 H    0.977    37 H    0.973
                            35 H    0.973
     9   6 C    3.900 --    12 C    1.391     6 C    1.220    10 O    1.103
    10   8 O    2.253 --     9 C    1.103    11 C    0.977
    11   6 C    3.930 --    10 O    0.977    39 H    0.977    40 H    0.973
                            38 H    0.973
    12   6 C    3.961 --    13 C    1.404     9 C    1.391    41 H    0.964
    13   6 C    3.953 --     4 C    1.412    12 C    1.404    42 H    0.963
    14   6 C    3.972 --    15 C    0.980    44 H    0.972    43 H    0.968
                             3 C    0.958
    15   6 C    3.986 --    16 C    1.060    14 C    0.980    45 H    0.961
                            46 H    0.927
    16   6 C    3.608 --    17 N    1.416    15 C    1.060    48 H    0.957
    17   7 N    3.491 --    16 C    1.416    30 C    0.998    18 C    0.986
    18   6 C    3.955 --    17 N    0.986    50 H    0.967    19 C    0.967
                            49 H    0.963
    19   6 C    3.976 --    20 C    1.005    51 H    0.972    52 H    0.972
                            18 C    0.967
    20   6 C    3.964 --    29 C    1.412    21 C    1.406    19 C    1.005
    21   6 C    3.940 --    22 C    1.409    20 C    1.406    53 H    0.968
    22   6 C    3.972 --    23 C    1.472    21 C    1.409    54 H    0.967
    23   6 C    3.940 --    22 C    1.472    26 C    1.319    57 H    0.965
    24   8 O    2.075 --    25 C    1.986
    25   6 C    3.862 --    24 O    1.986    55 H    0.938    56 H    0.938
    26   6 C    3.906 --    29 C    1.354    23 C    1.319    27 O    1.097
    27   8 O    2.243 --    26 C    1.097    28 C    0.979
    28   6 C    3.934 --    27 O    0.979    58 H    0.977    59 H    0.974
                            60 H    0.973
    29   6 C    3.949 --    20 C    1.412    26 C    1.354    61 H    0.963
    30   6 C    3.957 --    17 N    0.998    64 H    0.977    62 H    0.965
                            63 H    0.961
    31   6 C    3.971 --    33 C    1.009    32 C    1.008    65 H    0.960
                             3 C    0.941
    32   6 C    3.977 --    31 C    1.008    67 H    0.981    68 H    0.981
                            66 H    0.973
    33   6 C    3.981 --    31 C    1.009    70 H    0.983    71 H    0.980
                            69 H    0.976
    34   1 H    0.996 --     5 C    0.958
    35   1 H    0.993 --     8 C    0.973
    36   1 H    0.993 --     8 C    0.977
    37   1 H    0.994 --     8 C    0.973
    38   1 H    0.992 --    11 C    0.973
    39   1 H    0.993 --    11 C    0.977
    40   1 H    0.993 --    11 C    0.973
    41   1 H    0.995 --    12 C    0.964
    42   1 H    0.998 --    13 C    0.963
    43   1 H    0.995 --    14 C    0.968
    44   1 H    0.996 --    14 C    0.972
    45   1 H    0.995 --    15 C    0.961
    46   1 H    0.971 --    15 C    0.927
    47   1 H    0.986 --     2 C    0.902
    48   1 H    0.994 --    16 C    0.957
    49   1 H    0.990 --    18 C    0.963
    50   1 H    0.994 --    18 C    0.967
    51   1 H    0.996 --    19 C    0.972
    52   1 H    0.996 --    19 C    0.972
    53   1 H    0.997 --    21 C    0.968
    54   1 H    0.994 --    22 C    0.967
    55   1 H    0.987 --    25 C    0.938
    56   1 H    0.987 --    25 C    0.938
    57   1 H    0.993 --    23 C    0.965
    58   1 H    0.993 --    28 C    0.977
    59   1 H    0.993 --    28 C    0.974
    60   1 H    0.993 --    28 C    0.973
    61   1 H    0.997 --    29 C    0.963
    62   1 H    0.985 --    30 C    0.965
    63   1 H    0.988 --    30 C    0.961
    64   1 H    0.993 --    30 C    0.977
    65   1 H    0.992 --    31 C    0.960
    66   1 H    0.990 --    32 C    0.973
    67   1 H    0.996 --    32 C    0.981
    68   1 H    0.994 --    32 C    0.981
    69   1 H    0.993 --    33 C    0.976
    70   1 H    0.997 --    33 C    0.983
    71   1 H    0.993 --    33 C    0.980
    72   1 H    0.969 --     1 N    0.941
 ---------------------------------------------------------------------------

molecular dipole:
                 x           y           z       tot (Debye)
 q only:        0.453      -0.309      -0.756
   full:        0.929      -0.437      -0.806       3.319

           -------------------------------------------------
          | TOTAL ENERGY              -99.356539914186 Eh   |
          | GRADIENT NORM               0.001695768206 Eh/α |
          | HOMO-LUMO GAP               1.757703994983 eV   |
           -------------------------------------------------

 * finished run on 2024/04/06 at 11:17:12.757
