   * xtb version 6.6.1 (8d0f1dd) compiled by 'conda@1efc2f54142f' on 2023-08-01
          program call               : xtb struc.xyz --opt loose --input .xc1 --gfn2

   ID    Z sym.   atoms
    1    7 N      1, 17
    2    6 C      2-6, 8, 9, 11-16, 18-23, 25, 26, 28-33
    3    8 O      7, 10, 24, 27
    4    1 H      34-72
constraining bond 1 70 to    5.6866700 Å, actual value:    3.7191895 Å

          :  Hamiltonian                  GFN2-xTB          :
 * total energy  :  -100.0953067 Eh     change       -0.4035485E-08 Eh
 * total energy  :  -100.6226472 Eh     change       -0.5273405E+00 Eh
 * total energy  :  -101.2645599 Eh     change       -0.6419127E+00 Eh
 * total energy  :  -102.0226277 Eh     change       -0.7580679E+00 Eh
 * total energy  :  -102.9347108 Eh     change       -0.9120831E+00 Eh
 * total energy  :  -100.8655022 Eh     change        0.2069209E+01 Eh
 * total energy  :  -103.2532929 Eh     change       -0.2387791E+01 Eh
 * total energy  :  -103.3356169 Eh     change       -0.8232398E-01 Eh
 * total energy  :  -103.3873253 Eh     change       -0.5170843E-01 Eh
 * total energy  :  -103.4141461 Eh     change       -0.2682076E-01 Eh
 * total energy  :  -103.6978131 Eh     change       -0.1134363E-03 Eh
 * total energy  :  -103.6979118 Eh     change       -0.9865046E-04 Eh
 * total energy  :  -103.6980024 Eh     change       -0.9067851E-04 Eh
 * total energy  :  -103.6980855 Eh     change       -0.8306110E-04 Eh
 * total energy  :  -103.6981664 Eh     change       -0.8085573E-04 Eh
 * total energy  :  -103.6982453 Eh     change       -0.7897938E-04 Eh
 * total energy  :  -103.6983149 Eh     change       -0.6953971E-04 Eh
 * total energy  :  -103.6983705 Eh     change       -0.5564037E-04 Eh
 * total energy  :  -103.6984144 Eh     change       -0.4386375E-04 Eh
   *** GEOMETRY OPTIMIZATION CONVERGED AFTER 117 ITERATIONS ***

 final structure:
================
72
 xtb: 6.6.1 (8d0f1dd)
N           -1.57264956668492        2.57174745023890        1.50621347760349
C           -1.55351777614914        1.19769228163030        0.87617169229846
C           -2.76148381134992        1.12442851124396       -0.08720947519751
C           -3.69662081799119       -0.05526153966882        0.12363459394661
C           -4.77280790979490       -0.17904221580716       -0.76741596841631
C           -5.67313946062507       -1.22457701859010       -0.67971255581061
O           -6.73472076009565       -1.41585982532081       -1.49673524059059
C           -6.95660962194087       -0.51970969343474       -2.55736738652860
C           -5.51121578158707       -2.20246029851020        0.33552441829348
O           -6.42677238879304       -3.19437737086105        0.34202050263766
C           -6.31668598588235       -4.21155491289288        1.30960826504598
C           -4.45550725631344       -2.06884876269352        1.21910141460096
C           -3.56186732148734       -1.00723256041106        1.11631427230040
C           -2.10013185193793        1.02305586684162       -1.48528813051751
C           -0.77745146049078        0.31201961215505       -1.23059797774347
C           -0.25971606490269        0.98821464708721        0.05158167798628
N            0.74020610924640        0.33234506946183        0.86301237498821
C            2.11199099765227        0.75374207952204        0.63530239861246
C            2.70055670417327        0.47203690838726       -0.76206732153345
C            4.19863034082507        0.57459338806689       -0.70388990296781
C            4.84895524830120        1.77407569996110       -0.92205982181577
C            6.23025985912677        1.86245161861328       -0.80921078425686
C            6.98365542025490        0.75101857146643       -0.47049008990812
O            8.33049991285561        0.72408362519327       -0.32811158516559
C            9.05601612325538        1.91363220383826       -0.52352218644416
C            6.32613751588002       -0.48450769023581       -0.24721759629663
O            7.13582433718843       -1.52342912697981        0.07445277551847
C            6.56345082423827       -2.79379888158828        0.26376893608943
C            4.94934815447875       -0.55013664297341       -0.36411534256735
C            0.60208876188132       -1.10592656423054        1.00052125110551
C           -3.48738405307110        2.48451847661490        0.11079293117353
C           -4.58956914408874        2.43723639773296        1.16714875492969
C           -2.35449327070322        3.41049854990985        0.54804924907525
H           -4.90141758123596        0.56460405413058       -1.53746395205071
H           -7.13975342537117        0.49767006726878       -2.19684560553686
H           -7.84727422221633       -0.88463435766564       -3.06488395274957
H           -6.11823071141995       -0.51307842602888       -3.26168467172375
H           -6.40602633935178       -3.81259821812019        2.32495599398504
H           -7.14471185702152       -4.89065512159634        1.11618464375688
H           -5.37205680529330       -4.75640936139632        1.21279028134949
H           -4.30594350451669       -2.79206505347838        2.00356958715370
H           -2.76782353097844       -0.97852491483239        1.84588502514959
H           -2.72092567915361        0.46996526434151       -2.18413285174916
H           -1.91926683901092        2.01493940887955       -1.90294629620905
H           -0.96237097579590       -0.74523500086161       -1.05121322439694
H           -0.08140952631044        0.41166050769512       -2.05955298529473
H           -1.58270781873435        0.46334837646593        1.67645110934381
H            0.14594315836535        1.96888485021444       -0.22324196931656
H            2.72368922805013        0.24137069500631        1.38045807392461
H            2.17866802188836        1.82706946573462        0.84036591894431
H            2.30130173422950        1.18495172936337       -1.48575777484627
H            2.41697980129972       -0.53312184792934       -1.07659354620733
H            4.28612905279464        2.65577754265711       -1.19099655873926
H            6.70996137638074        2.81018290378221       -0.99187279605565
H            8.74537644640845        2.69458235586460        0.17846103899451
H            8.95420930593372        2.28347876853778       -1.54896557394590
H           10.09679936525131        1.65538786236119       -0.33615260062951
H            7.39533115930395       -3.46000147417070        0.48448263144174
H            5.86364512986860       -2.80003061084574        1.10673812082833
H            6.05052019588571       -3.14256276306897       -0.63865398056372
H            4.43627891439700       -1.48470494212142       -0.19776406686423
H            0.94094451537404       -1.66519516379967        0.12156162093610
H           -0.43740116634958       -1.36739012257085        1.18660116285880
H            1.19517926998683       -1.42249243071513        1.85747922353752
H           -3.91947444712325        2.82852938844304       -0.82899488889164
H           -4.24623996907238        1.99863177339323        2.10208752210863
H           -5.41721873535053        1.83064230332518        0.81528162393459
H           -4.96652190394415        3.43861822322402        1.36278065142750
H           -2.70361140886227        4.32473254726526        1.02803164386316
H           -0.92788832258763        2.80697042368571        1.63068355847333
H           -1.70269069226152        3.66996335180607       -0.28687004632511
H           -2.15875162193173        2.50020961439445        2.35279513228868

          :  Hamiltonian                  GFN2-xTB          :
         :: total energy            -103.698414389558 Eh    ::
         :: gradient norm              0.001660654435 Eh/a0 ::
         :: HOMO-LUMO gap              3.236714040693 eV    ::
         :: SCC energy              -100.804626877643 Eh    ::
         :: -> dispersion             -0.076236327706 Eh    ::
         :: repulsion energy           1.549835689801 Eh    ::

    * Orbital Energies and Occupations

         #    Occupation            Energy/Eh            Energy/eV
      -------------------------------------------------------------
         1        2.0000           -0.8710066             -23.7013
       ...           ...                  ...                  ...
        78        1.9999           -0.5252939             -14.2940
        79        1.9999           -0.5215429             -14.1919
        80        1.9998           -0.5177999             -14.0901
        81        1.9998           -0.5131900             -13.9646
        82        1.9998           -0.5129621             -13.9584
        83        1.9997           -0.5065932             -13.7851
        84        1.9995           -0.5005372             -13.6203
        85        1.9991           -0.4917847             -13.3821
        86        1.9981           -0.4791213             -13.0376
        87        1.9950           -0.4638122             -12.6210
        88        1.9913           -0.4551023             -12.3840
        89        1.9868           -0.4484927             -12.2041
        90        1.9475           -0.4262658             -11.5993 (HOMO)
        91        0.0397           -0.3073188              -8.3626 (LUMO)
        92        0.0299           -0.3027468              -8.2382
        93        0.0081           -0.2818416              -7.6693
        94        0.0065           -0.2785147              -7.5788
        95        0.0001           -0.2097934              -5.7088
        96        0.0000           -0.1872779              -5.0961
        97        0.0000           -0.1747210              -4.7544
        98        0.0000           -0.1558322              -4.2404
        99        0.0000           -0.1311711              -3.5693
       100        0.0000           -0.1093430              -2.9754
       101                         -0.0898778              -2.4457
       ...                                ...                  ...
       171                          1.0826753              29.4611
      -------------------------------------------------------------
                  HL-Gap            0.1189471 Eh            3.2367 eV

     #   Z          covCN         q      C6AA      α(0)
     1   7 N        3.540    -0.058    22.363     7.024
     2   6 C        3.833    -0.004    20.631     6.462
     3   6 C        3.932     0.004    20.446     6.426
     4   6 C        2.966    -0.019    28.477     8.753
     5   6 C        2.923    -0.088    30.201     9.012
     6   6 C        2.862     0.126    25.234     8.234
     7   8 O        1.706    -0.240    17.979     5.725
     8   6 C        3.644     0.031    20.392     6.491
     9   6 C        2.865     0.128    25.202     8.229
    10   8 O        1.706    -0.237    17.930     5.717
    11   6 C        3.646     0.029    20.411     6.492
    12   6 C        2.915    -0.077    29.912     8.968
    13   6 C        2.920    -0.061    29.529     8.911
    14   6 C        3.830    -0.075    21.901     6.659
    15   6 C        3.824    -0.074    21.892     6.658
    16   6 C        3.815     0.034    19.983     6.363
    17   7 N        2.726    -0.184    24.980     7.423
    18   6 C        3.754    -0.000    20.644     6.479
    19   6 C        3.806    -0.068    21.800     6.647
    20   6 C        2.970    -0.007    28.181     8.708
    21   6 C        2.922    -0.054    29.348     8.884
    22   6 C        2.915    -0.072    29.798     8.951
    23   6 C        2.865     0.126    25.239     8.235
    24   8 O        1.706    -0.242    18.005     5.729
    25   6 C        3.645     0.032    20.372     6.487
    26   6 C        2.864     0.126    25.227     8.233
    27   8 O        1.706    -0.243    18.021     5.731
    28   6 C        3.645     0.033    20.345     6.483
    29   6 C        2.922    -0.082    30.058     8.991
    30   6 C        3.700    -0.042    21.492     6.630
    31   6 C        3.868    -0.031    21.077     6.528
    32   6 C        3.754    -0.126    22.977     6.835
    33   6 C        3.769    -0.033    21.201     6.562
    34   1 H        0.926     0.039     2.464     2.455
    35   1 H        0.924     0.042     2.427     2.436
    36   1 H        0.925     0.077     2.008     2.216
    37   1 H        0.924     0.044     2.398     2.422
    38   1 H        0.924     0.047     2.362     2.403
    39   1 H        0.925     0.077     2.014     2.220
    40   1 H        0.924     0.047     2.354     2.400
    41   1 H        0.926     0.048     2.345     2.395
    42   1 H        0.926     0.020     2.736     2.587
    43   1 H        0.925     0.068     2.110     2.272
    44   1 H        0.924     0.040     2.443     2.444
    45   1 H        0.925     0.060     2.201     2.320
    46   1 H        0.925     0.058     2.222     2.331
    47   1 H        0.925     0.093     1.855     2.130
    48   1 H        0.924     0.042     2.425     2.435
    49   1 H        0.924     0.053     2.284     2.364
    50   1 H        0.924     0.028     2.614     2.528
    51   1 H        0.924     0.031     2.577     2.510
    52   1 H        0.924     0.041     2.429     2.437
    53   1 H        0.926     0.030     2.586     2.515
    54   1 H        0.926     0.046     2.370     2.407
    55   1 H        0.924     0.044     2.392     2.419
    56   1 H        0.924     0.046     2.365     2.405
    57   1 H        0.925     0.073     2.054     2.241
    58   1 H        0.925     0.073     2.057     2.243
    59   1 H        0.924     0.041     2.439     2.442
    60   1 H        0.924     0.044     2.392     2.419
    61   1 H        0.926     0.039     2.462     2.454
    62   1 H        0.924     0.034     2.526     2.486
    63   1 H        0.925     0.041     2.431     2.438
    64   1 H        0.925     0.054     2.270     2.356
    65   1 H        0.925     0.078     2.003     2.213
    66   1 H        0.925     0.040     2.454     2.450
    67   1 H        0.925     0.076     2.019     2.222
    68   1 H        0.925     0.058     2.228     2.334
    69   1 H        0.925     0.091     1.866     2.136
    70   1 H        0.863     0.251     0.878     1.468
    71   1 H        0.924     0.093     1.854     2.129
    72   1 H        0.859     0.242     0.916     1.499

Wiberg/Mayer (AO) data.
largest (>0.10) Wiberg bond orders for each atom

     #   Z sym  total        # sym  WBO       # sym  WBO       # sym  WBO
 ---------------------------------------------------------------------------
     1   7 N    3.704 --    33 C    0.928    70 H    0.919    72 H    0.909
                             2 C    0.893
     2   6 C    3.891 --     3 C    0.971    16 C    0.967    47 H    0.948
                             1 N    0.893
     3   6 C    3.977 --     4 C    0.983     2 C    0.971    14 C    0.970
                            31 C    0.956
     4   6 C    3.949 --    13 C    1.440     5 C    1.341     3 C    0.983
     5   6 C    3.956 --     6 C    1.416     4 C    1.341    34 H    0.962
     6   6 C    3.920 --     5 C    1.416     9 C    1.229     7 O    1.085
     7   8 O    2.261 --     6 C    1.085     8 C    0.983
     8   6 C    3.940 --     7 O    0.983    36 H    0.977    37 H    0.976
                            35 H    0.975
     9   6 C    3.916 --    12 C    1.402     6 C    1.229    10 O    1.094
    10   8 O    2.266 --     9 C    1.094    11 C    0.980
    11   6 C    3.937 --    10 O    0.980    39 H    0.978    40 H    0.976
                            38 H    0.975
    12   6 C    3.961 --     9 C    1.402    13 C    1.384    41 H    0.965
    13   6 C    3.964 --     4 C    1.440    12 C    1.384    42 H    0.957
    14   6 C    3.989 --    15 C    1.008    44 H    0.974    43 H    0.971
                             3 C    0.970
    15   6 C    3.991 --    14 C    1.008    46 H    0.974    16 C    0.973
                            45 H    0.973
    16   6 C    3.982 --    17 N    1.014    15 C    0.973     2 C    0.967
                            48 H    0.958
    17   7 N    3.151 --    16 C    1.014    30 C    1.009    18 C    0.999
    18   6 C    3.975 --    17 N    0.999    19 C    0.975    50 H    0.973
                            49 H    0.970
    19   6 C    3.995 --    20 C    1.009    18 C    0.975    51 H    0.975
                            52 H    0.969
    20   6 C    3.968 --    21 C    1.430    29 C    1.370    19 C    1.009
    21   6 C    3.971 --    20 C    1.430    22 C    1.402    53 H    0.970
    22   6 C    3.972 --    21 C    1.402    23 C    1.402    54 H    0.965
    23   6 C    3.918 --    22 C    1.402    26 C    1.241    24 O    1.083
    24   8 O    2.248 --    23 C    1.083    25 C    0.982
    25   6 C    3.940 --    24 O    0.982    57 H    0.978    55 H    0.975
                            56 H    0.975
    26   6 C    3.921 --    29 C    1.410    23 C    1.241    27 O    1.080
    27   8 O    2.249 --    26 C    1.080    28 C    0.984
    28   6 C    3.942 --    27 O    0.984    58 H    0.978    60 H    0.975
                            59 H    0.975
    29   6 C    3.970 --    26 C    1.410    20 C    1.370    61 H    0.963
    30   6 C    3.980 --    17 N    1.009    64 H    0.979    63 H    0.977
                            62 H    0.972
    31   6 C    3.980 --    32 C    1.010    33 C    0.997    65 H    0.961
                             3 C    0.956
    32   6 C    3.989 --    31 C    1.010    68 H    0.982    66 H    0.981
                            67 H    0.977
    33   6 C    3.911 --    31 C    0.997    69 H    0.968    71 H    0.967
                             1 N    0.928
    34   1 H    0.998 --     5 C    0.962
    35   1 H    0.998 --     8 C    0.975
    36   1 H    0.994 --     8 C    0.977
    37   1 H    0.997 --     8 C    0.976
    38   1 H    0.997 --    11 C    0.975
    39   1 H    0.994 --    11 C    0.978
    40   1 H    0.997 --    11 C    0.976
    41   1 H    0.997 --    12 C    0.965
    42   1 H    0.999 --    13 C    0.957
    43   1 H    0.995 --    14 C    0.971
    44   1 H    0.998 --    14 C    0.974
    45   1 H    0.996 --    15 C    0.973
    46   1 H    0.996 --    15 C    0.974
    47   1 H    0.991 --     2 C    0.948
    48   1 H    0.998 --    16 C    0.958
    49   1 H    0.997 --    18 C    0.970
    50   1 H    0.999 --    18 C    0.973
    51   1 H    0.998 --    19 C    0.975
    52   1 H    0.997 --    19 C    0.969
    53   1 H    0.999 --    21 C    0.970
    54   1 H    0.997 --    22 C    0.965
    55   1 H    0.996 --    25 C    0.975
    56   1 H    0.996 --    25 C    0.975
    57   1 H    0.994 --    25 C    0.978
    58   1 H    0.994 --    28 C    0.978
    59   1 H    0.997 --    28 C    0.975
    60   1 H    0.997 --    28 C    0.975
    61   1 H    0.998 --    29 C    0.963
    62   1 H    0.998 --    30 C    0.972
    63   1 H    0.998 --    30 C    0.977
    64   1 H    0.997 --    30 C    0.979
    65   1 H    0.994 --    31 C    0.961
    66   1 H    0.998 --    32 C    0.981
    67   1 H    0.994 --    32 C    0.977
    68   1 H    0.996 --    32 C    0.982
    69   1 H    0.991 --    33 C    0.968
    70   1 H    0.937 --     1 N    0.919
    71   1 H    0.991 --    33 C    0.967
    72   1 H    0.941 --     1 N    0.909
 ---------------------------------------------------------------------------

molecular dipole:
                 x           y           z       tot (Debye)
 q only:       -2.827       3.414       1.566
   full:       -2.603       3.668       1.668      12.193

           -------------------------------------------------
          | TOTAL ENERGY             -103.698414389558 Eh   |
          | GRADIENT NORM               0.001660654435 Eh/α |
          | HOMO-LUMO GAP               3.236714040693 eV   |
           -------------------------------------------------

 * finished run on 2024/04/06 at 11:15:39.632
