   * xtb version 6.6.1 (8d0f1dd) compiled by 'conda@1efc2f54142f' on 2023-08-01
          program call               : xtb xtbopt.xyz --opt crude --input .xc2 --gfn2

   ID    Z sym.   atoms
    1    7 N      1, 17
    2    6 C      2-6, 8, 9, 11-16, 18-23, 25, 26, 28-33
    3    8 O      7, 10, 24, 27
    4    1 H      34-72
########################################################################
[WARNING] Please study the warnings concerning your input carefully
-1- readin_getIntValue: could not parse ''
########################################################################

          :  Hamiltonian                  GFN2-xTB          :
 * total energy  :   -99.2539434 Eh     change       -0.8668621E-12 Eh
 * total energy  :   -99.4384346 Eh     change       -0.1844912E+00 Eh
 * total energy  :   -99.4409955 Eh     change       -0.2560905E-02 Eh
 * total energy  :   -99.4413225 Eh     change       -0.3270331E-03 Eh
   *** GEOMETRY OPTIMIZATION CONVERGED AFTER 4 ITERATIONS ***

 final structure:
================
72
 xtb: 6.6.1 (8d0f1dd)
N           -1.60653165446521        2.55599259309223        1.49820506713444
C           -1.56229367077706        1.19583825336199        0.87864494524805
C           -2.76759819206560        1.11671478686470       -0.09099476065768
C           -3.70131885617349       -0.06272665411984        0.11774873307644
C           -4.77744731494338       -0.18498639676432       -0.77280743858457
C           -5.67929627732861       -1.22852454568350       -0.68398687919828
O           -6.74142079502576       -1.41661146581570       -1.50081516482685
C           -6.95917596509523       -0.51744329060566       -2.55962971945115
C           -5.51766259499953       -2.20578162109672        0.33179168531404
O           -6.43423220800366       -3.19690038075361        0.34065684318489
C           -6.32181258577501       -4.21311192488669        1.30888150268551
C           -4.46182056691715       -2.07339472876090        1.21499638403864
C           -3.56674099296074       -1.01331899017312        1.11118369392774
C           -2.10170925124918        1.01842847609008       -1.48654128136444
C           -0.77740663404646        0.31240503880726       -1.22881317914073
C           -0.26601819176435        0.98961429594769        0.05519478697959
N            0.73533787765389        0.33539375689699        0.86609916213266
C            2.10809620344410        0.75515057557130        0.63737454190037
C            2.69732066983487        0.47375565841594       -0.75961260195725
C            4.19564565733993        0.57532280898841       -0.70192863561258
C            4.84608475625589        1.77439015812544       -0.92187809228708
C            6.22752860788430        1.86334591227348       -0.80940296608926
C            6.98137945339675        0.75247814058561       -0.47027973575714
O            8.32820030459122        0.72626370246163       -0.32685052609796
C            9.05378273953971        1.91507449101684       -0.52485675481096
C            6.32400671638281       -0.48326522506852       -0.24740946451610
O            7.13454181004291       -1.52204594637740        0.07254986760220
C            6.56405615261458       -2.79243207054215        0.26407797942583
C            4.94706974081063       -0.54927587800758       -0.36251664004521
C            0.59887610698464       -1.10343561349426        1.00437131844187
C           -3.49726145086160        2.47717585280032        0.10578386043023
C           -4.60124405643688        2.42861074158646        1.16034847059443
C           -2.36352654893172        3.40378292180631        0.54874154709369
H           -4.90394155338531        0.55938373850252       -1.54226661545002
H           -7.14318731398152        0.49916153078001       -2.19618442029871
H           -7.84829568079481       -0.88027740782527       -3.07134412081347
H           -6.11806325106334       -0.50897965189669       -3.26065723721521
H           -6.41125781086997       -3.81321305905802        2.32382077571441
H           -7.14907174469218       -4.89305584976882        1.11613621777569
H           -5.37657734047521       -4.75649399000378        1.21226907071036
H           -4.31295339509869       -2.79536838923541        2.00063473003467
H           -2.77268146337196       -0.98386869229638        1.84057874571662
H           -2.71829755928859        0.46440841335641       -2.18862847832366
H           -1.92269864829206        2.01162181340328       -1.90214115625770
H           -0.95899388097809       -0.74539195076044       -1.04914016132024
H           -0.07881206511548        0.41416020261572       -2.05550283024492
H           -1.58785420088860        0.45607499181273        1.67480301167105
H            0.13673640679105        1.97264735922397       -0.21734532811306
H            2.71941880483596        0.24160208003135        1.38222126656720
H            2.17760636966359        1.82841601308999        0.84305894385156
H            2.29893539172354        1.18742995965342       -1.48317582285442
H            2.41264718058829       -0.53081856869885       -1.07491469916860
H            4.28325953714949        2.65568871507763       -1.19214845368618
H            6.70665145996195        2.81130857747819       -0.99258767551598
H            8.74618524284659        2.69618232045399        0.17791841273999
H            8.94897347170802        2.28498790644804       -1.54979301240579
H           10.09479293453002        1.65588732402227       -0.34095552637078
H            7.39711091816822       -3.45767703175063        0.48325334208355
H            5.86633387546864       -2.79899800584606        1.10846647011539
H            6.04954600124578       -3.14274392879895       -0.63675836166246
H            4.43479800826794       -1.48419401797711       -0.19578766300448
H            0.93962425708801       -1.66235812149109        0.12631395680662
H           -0.44002797682852       -1.36627185709742        1.18983440722870
H            1.19197152999473       -1.41830498071170        1.86179978892680
H           -3.92942838896102        2.81712141263064       -0.83529658184245
H           -4.25549487941173        1.99051642288434        2.09431022179849
H           -5.43059396850087        1.82190235047443        0.81128533607282
H           -4.97658163005312        3.43039519542631        1.35606481318369
H           -2.71377386122818        4.32051990213245        1.02252751894101
H           -0.65716893379597        2.89800121204660        1.66413870179441
H           -1.71268392183239        3.65938685320611       -0.28781156609161
H           -2.11704531308685        2.51886729832879        2.38594227274328

          :  Hamiltonian                  GFN2-xTB          :
         :: total energy             -99.441322545672 Eh    ::
         :: gradient norm              0.004483029222 Eh/a0 ::
         :: HOMO-LUMO gap              3.268277695620 eV    ::
         :: SCC energy              -100.773987563490 Eh    ::
         :: -> dispersion             -0.076232855631 Eh    ::
         :: repulsion energy           1.331818312406 Eh    ::

    * Orbital Energies and Occupations

         #    Occupation            Energy/Eh            Energy/eV
      -------------------------------------------------------------
         1        2.0000           -0.8574081             -23.3313
       ...           ...                  ...                  ...
        78        1.9999           -0.5254831             -14.2991
        79        1.9999           -0.5208467             -14.1730
        80        1.9998           -0.5180535             -14.0970
        81        1.9998           -0.5130733             -13.9614
        82        1.9998           -0.5125085             -13.9461
        83        1.9997           -0.5068002             -13.7907
        84        1.9995           -0.5007063             -13.6249
        85        1.9992           -0.4919940             -13.3878
        86        1.9980           -0.4784276             -13.0187
        87        1.9952           -0.4640973             -12.6287
        88        1.9916           -0.4553432             -12.3905
        89        1.9866           -0.4478102             -12.1855
        90        1.9491           -0.4264496             -11.6043 (HOMO)
        91        0.0382           -0.3063426              -8.3360 (LUMO)
        92        0.0290           -0.3018882              -8.2148
        93        0.0084           -0.2820492              -7.6750
        94        0.0068           -0.2787453              -7.5850
        95        0.0001           -0.2146838              -5.8418
        96        0.0000           -0.1818354              -4.9480
        97        0.0000           -0.1623199              -4.4169
        98        0.0000           -0.1560361              -4.2460
        99        0.0000           -0.1329004              -3.6164
       100        0.0000           -0.1191623              -3.2426
       101                         -0.0991144              -2.6970
       ...                                ...                  ...
       171                          0.6098803              16.5957
      -------------------------------------------------------------
                  HL-Gap            0.1201070 Eh            3.2683 eV

     #   Z          covCN         q      C6AA      α(0)
     1   7 N        3.545    -0.045    22.113     6.984
     2   6 C        3.834    -0.002    20.586     6.455
     3   6 C        3.932     0.005    20.427     6.423
     4   6 C        2.967    -0.018    28.457     8.750
     5   6 C        2.924    -0.088    30.194     9.011
     6   6 C        2.863     0.126    25.232     8.234
     7   8 O        1.706    -0.240    17.981     5.725
     8   6 C        3.645     0.031    20.388     6.490
     9   6 C        2.865     0.127    25.203     8.229
    10   8 O        1.706    -0.237    17.935     5.718
    11   6 C        3.646     0.029    20.408     6.492
    12   6 C        2.915    -0.077    29.911     8.968
    13   6 C        2.921    -0.061    29.520     8.910
    14   6 C        3.830    -0.074    21.890     6.657
    15   6 C        3.823    -0.073    21.885     6.657
    16   6 C        3.814     0.034    19.990     6.364
    17   7 N        2.725    -0.185    25.009     7.427
    18   6 C        3.754    -0.000    20.638     6.478
    19   6 C        3.806    -0.068    21.799     6.647
    20   6 C        2.970    -0.007    28.187     8.709
    21   6 C        2.922    -0.054    29.353     8.885
    22   6 C        2.915    -0.072    29.801     8.952
    23   6 C        2.865     0.126    25.240     8.235
    24   8 O        1.706    -0.242    18.007     5.729
    25   6 C        3.645     0.032    20.371     6.487
    26   6 C        2.864     0.126    25.228     8.233
    27   8 O        1.706    -0.243    18.021     5.732
    28   6 C        3.645     0.033    20.344     6.482
    29   6 C        2.922    -0.082    30.059     8.991
    30   6 C        3.701    -0.042    21.492     6.630
    31   6 C        3.870    -0.029    21.041     6.523
    32   6 C        3.754    -0.124    22.938     6.829
    33   6 C        3.771    -0.029    21.127     6.550
    34   1 H        0.926     0.039     2.464     2.455
    35   1 H        0.924     0.042     2.428     2.437
    36   1 H        0.925     0.077     2.009     2.217
    37   1 H        0.924     0.044     2.399     2.422
    38   1 H        0.924     0.047     2.363     2.404
    39   1 H        0.925     0.076     2.016     2.220
    40   1 H        0.924     0.047     2.356     2.400
    41   1 H        0.926     0.048     2.348     2.396
    42   1 H        0.926     0.020     2.736     2.586
    43   1 H        0.925     0.067     2.117     2.276
    44   1 H        0.924     0.040     2.449     2.447
    45   1 H        0.925     0.060     2.202     2.321
    46   1 H        0.925     0.058     2.227     2.334
    47   1 H        0.925     0.092     1.857     2.131
    48   1 H        0.924     0.040     2.454     2.450
    49   1 H        0.924     0.053     2.282     2.363
    50   1 H        0.924     0.026     2.644     2.543
    51   1 H        0.924     0.031     2.577     2.510
    52   1 H        0.924     0.042     2.426     2.436
    53   1 H        0.926     0.030     2.592     2.518
    54   1 H        0.926     0.046     2.371     2.408
    55   1 H        0.924     0.044     2.393     2.419
    56   1 H        0.924     0.046     2.366     2.405
    57   1 H        0.925     0.073     2.054     2.241
    58   1 H        0.925     0.073     2.057     2.243
    59   1 H        0.924     0.041     2.440     2.443
    60   1 H        0.924     0.044     2.393     2.419
    61   1 H        0.926     0.039     2.463     2.454
    62   1 H        0.924     0.035     2.521     2.483
    63   1 H        0.925     0.042     2.425     2.435
    64   1 H        0.925     0.054     2.271     2.357
    65   1 H        0.925     0.076     2.025     2.226
    66   1 H        0.925     0.040     2.452     2.449
    67   1 H        0.925     0.074     2.043     2.235
    68   1 H        0.925     0.056     2.243     2.342
    69   1 H        0.925     0.090     1.881     2.145
    70   1 H        0.859     0.240     0.921     1.504
    71   1 H        0.924     0.090     1.876     2.142
    72   1 H        0.859     0.244     0.908     1.492

Wiberg/Mayer (AO) data.
largest (>0.10) Wiberg bond orders for each atom

     #   Z sym  total        # sym  WBO       # sym  WBO       # sym  WBO
 ---------------------------------------------------------------------------
     1   7 N    3.724 --    33 C    0.938    70 H    0.914    72 H    0.913
                             2 C    0.907
     2   6 C    3.896 --     3 C    0.968    16 C    0.966    47 H    0.946
                             1 N    0.907
     3   6 C    3.977 --     4 C    0.984    14 C    0.971     2 C    0.968
                            31 C    0.955
     4   6 C    3.950 --    13 C    1.441     5 C    1.342     3 C    0.984
     5   6 C    3.956 --     6 C    1.416     4 C    1.342    34 H    0.962
     6   6 C    3.920 --     5 C    1.416     9 C    1.230     7 O    1.085
     7   8 O    2.261 --     6 C    1.085     8 C    0.983
     8   6 C    3.940 --     7 O    0.983    36 H    0.977    37 H    0.976
                            35 H    0.975
     9   6 C    3.917 --    12 C    1.403     6 C    1.230    10 O    1.093
    10   8 O    2.265 --     9 C    1.093    11 C    0.980
    11   6 C    3.938 --    10 O    0.980    39 H    0.978    40 H    0.976
                            38 H    0.975
    12   6 C    3.962 --     9 C    1.403    13 C    1.384    41 H    0.965
    13   6 C    3.965 --     4 C    1.441    12 C    1.384    42 H    0.957
    14   6 C    3.990 --    15 C    1.008    44 H    0.974    43 H    0.972
                             3 C    0.971
    15   6 C    3.991 --    14 C    1.008    46 H    0.974    16 C    0.973
                            45 H    0.973
    16   6 C    3.983 --    17 N    1.014    15 C    0.973     2 C    0.966
                            48 H    0.956
    17   7 N    3.151 --    16 C    1.014    30 C    1.009    18 C    0.998
    18   6 C    3.975 --    17 N    0.998    19 C    0.975    50 H    0.973
                            49 H    0.970
    19   6 C    3.995 --    20 C    1.008    18 C    0.975    51 H    0.975
                            52 H    0.969
    20   6 C    3.968 --    21 C    1.431    29 C    1.370    19 C    1.008
    21   6 C    3.971 --    20 C    1.431    22 C    1.402    53 H    0.970
    22   6 C    3.972 --    23 C    1.402    21 C    1.402    54 H    0.965
    23   6 C    3.919 --    22 C    1.402    26 C    1.241    24 O    1.083
    24   8 O    2.249 --    23 C    1.083    25 C    0.982
    25   6 C    3.940 --    24 O    0.982    57 H    0.978    55 H    0.975
                            56 H    0.975
    26   6 C    3.921 --    29 C    1.410    23 C    1.241    27 O    1.080
    27   8 O    2.249 --    26 C    1.080    28 C    0.984
    28   6 C    3.942 --    27 O    0.984    58 H    0.978    60 H    0.975
                            59 H    0.975
    29   6 C    3.970 --    26 C    1.410    20 C    1.370    61 H    0.963
    30   6 C    3.980 --    17 N    1.009    64 H    0.980    63 H    0.977
                            62 H    0.972
    31   6 C    3.981 --    32 C    1.010    33 C    0.993    65 H    0.961
                             3 C    0.955
    32   6 C    3.989 --    31 C    1.010    68 H    0.982    66 H    0.982
                            67 H    0.978
    33   6 C    3.915 --    31 C    0.993    69 H    0.968    71 H    0.967
                             1 N    0.938
    34   1 H    0.998 --     5 C    0.962
    35   1 H    0.998 --     8 C    0.975
    36   1 H    0.994 --     8 C    0.977
    37   1 H    0.997 --     8 C    0.976
    38   1 H    0.997 --    11 C    0.975
    39   1 H    0.994 --    11 C    0.978
    40   1 H    0.997 --    11 C    0.976
    41   1 H    0.997 --    12 C    0.965
    42   1 H    0.999 --    13 C    0.957
    43   1 H    0.995 --    14 C    0.972
    44   1 H    0.998 --    14 C    0.974
    45   1 H    0.996 --    15 C    0.973
    46   1 H    0.996 --    15 C    0.974
    47   1 H    0.991 --     2 C    0.946
    48   1 H    0.998 --    16 C    0.956
    49   1 H    0.997 --    18 C    0.970
    50   1 H    0.999 --    18 C    0.973
    51   1 H    0.998 --    19 C    0.975
    52   1 H    0.997 --    19 C    0.969
    53   1 H    0.999 --    21 C    0.970
    54   1 H    0.997 --    22 C    0.965
    55   1 H    0.996 --    25 C    0.975
    56   1 H    0.996 --    25 C    0.975
    57   1 H    0.994 --    25 C    0.978
    58   1 H    0.994 --    28 C    0.978
    59   1 H    0.997 --    28 C    0.975
    60   1 H    0.997 --    28 C    0.975
    61   1 H    0.998 --    29 C    0.963
    62   1 H    0.998 --    30 C    0.972
    63   1 H    0.998 --    30 C    0.977
    64   1 H    0.997 --    30 C    0.980
    65   1 H    0.994 --    31 C    0.961
    66   1 H    0.998 --    32 C    0.982
    67   1 H    0.994 --    32 C    0.978
    68   1 H    0.996 --    32 C    0.982
    69   1 H    0.991 --    33 C    0.968
    70   1 H    0.942 --     1 N    0.914
    71   1 H    0.992 --    33 C    0.967
    72   1 H    0.940 --     1 N    0.913
 ---------------------------------------------------------------------------

molecular dipole:
                 x           y           z       tot (Debye)
 q only:       -2.728       3.456       1.618
   full:       -2.491       3.716       1.722      12.184

           -------------------------------------------------
          | TOTAL ENERGY              -99.441322545672 Eh   |
          | GRADIENT NORM               0.004483029222 Eh/α |
          | HOMO-LUMO GAP               3.268277695620 eV   |
           -------------------------------------------------

 * finished run on 2024/04/06 at 11:15:40.590
