   * xtb version 6.6.1 (8d0f1dd) compiled by 'conda@1efc2f54142f' on 2023-08-01
          program call               : xtb xtbopt.xyz --opt crude --input .xc2 --gfn2

   ID    Z sym.   atoms
    1    6 C      1, 3, 5-7, 10, 11, 14
    2    7 N      2, 4, 9, 13
    3    8 O      8, 12
    4    1 H      15-25

          :  Hamiltonian                  GFN2-xTB          :
 * total energy  :   -42.1052685 Eh     change       -0.1435296E-11 Eh
   *** GEOMETRY OPTIMIZATION CONVERGED AFTER 1 ITERATIONS ***

 final structure:
================
25
 xtb: 6.6.1 (8d0f1dd)
C            3.15052433143758        1.13732790448661       -0.05202032115893
N            2.23545783443038        0.02828318990749       -0.02831387276451
C            2.54924222987504       -1.26380374656707       -0.00566038796860
N            1.42037210969066       -2.01038938034552        0.02055960725788
C            0.35342675648827       -1.16253601397169        0.01389668213327
C            0.86035516094555        0.13102342244615       -0.01489530153521
C            0.01609048087692        1.28678541568745       -0.03851700999180
O            0.34978385956716        2.44985834804968       -0.07576825458816
N           -1.37394700320849        0.91761118553152       -0.01548024409260
C           -2.27051735198872        1.91322786002146       -0.02376122079715
C           -1.89212677203665       -0.40934031650782        0.01104289512231
O           -3.07361532146440       -0.61569017264541        0.02240221310382
N           -0.96424636484795       -1.44728479535106        0.02389907608368
C           -1.44576697761195       -2.81698861395601        0.05360624305932
H            3.65175059218877        1.23703469537173        0.91190554358201
H            3.90333516184729        0.98905006889465       -0.82521259016788
H            2.59064112456698        2.04990968069169       -0.25180494572482
H            3.54404682127541       -1.66190678460243       -0.00788093795244
H           -1.85918224416113        4.94583130261821        0.13372258730610
H           -1.91340297769835        2.93525717643607       -0.02261367882671
H           -3.31519129935786        1.66649851077578       -0.02086873709746
H           -1.11834707386567       -3.31499879979360        0.96629764754629
H           -1.09354928079103       -3.36174269408072       -0.82215065366848
H           -2.53411198291806       -2.78533737703403        0.03815983133746
H            1.38940970086517       -3.01944152446788        0.04062744770097

          :  Hamiltonian                  GFN2-xTB          :
         :: total energy             -42.105268471171 Eh    ::
         :: gradient norm              0.002646740344 Eh/a0 ::
         :: HOMO-LUMO gap              0.086999051069 eV    ::
         :: SCC energy               -42.625384339998 Eh    ::
         :: -> dispersion             -0.022796722617 Eh    ::
         :: repulsion energy           0.520034124220 Eh    ::

    * Orbital Energies and Occupations

         #    Occupation            Energy/Eh            Energy/eV
      -------------------------------------------------------------
         1        2.0000           -0.9112389             -24.7961
       ...           ...                  ...                  ...
        25        2.0000           -0.6717031             -18.2780
        26        2.0000           -0.6691797             -18.2093
        27        2.0000           -0.6628815             -18.0379
        28        1.9999           -0.6330971             -17.2274
        29        1.9999           -0.6300497             -17.1445
        30        1.9999           -0.6279625             -17.0877
        31        1.9998           -0.6190203             -16.8444
        32        1.9997           -0.6143880             -16.7183
        33        1.9997           -0.6133309             -16.6896
        34        1.9982           -0.5854444             -15.9308
        35        1.9941           -0.5666902             -15.4204
        36        1.9903           -0.5586534             -15.2017
        37        0.9907           -0.4741162             -12.9014 (HOMO)
        38        0.8902           -0.4709190             -12.8144 (LUMO)
        39        0.1170           -0.4304158             -11.7122
        40        0.0175           -0.3995252             -10.8716
        41        0.0031           -0.3719509             -10.1213
        42        0.0000           -0.2874618              -7.8222
        43                         -0.2081514              -5.6641
        44                         -0.1967457              -5.3537
        45                         -0.1509544              -4.1077
        46                         -0.1452619              -3.9528
        47                         -0.0788869              -2.1466
        48                         -0.0540021              -1.4695
       ...                                ...                  ...
        67                          0.5493755              14.9493
      -------------------------------------------------------------
                  HL-Gap            0.0031972 Eh            0.0870 eV

     #   Z          covCN         q      C6AA      α(0)
     1   6 C        3.691    -0.094    22.484     6.785
     2   7 N        2.830     0.078    19.892     6.624
     3   6 C        3.049     0.047    26.898     8.506
     4   7 N        2.791    -0.058    22.360     7.023
     5   6 C        3.041     0.106    25.627     8.303
     6   6 C        3.109    -0.024    28.442     8.738
     7   6 C        2.775     0.254    22.731     7.809
     8   8 O        0.857    -0.363    20.957     6.138
     9   7 N        2.741    -0.030    21.826     6.939
    10   6 C        2.816    -0.021    28.515     8.749
    11   6 C        2.738     0.309    21.753     7.636
    12   8 O        0.859    -0.350    20.712     6.102
    13   7 N        2.737    -0.049    22.196     6.997
    14   6 C        3.698    -0.074    22.080     6.721
    15   1 H        0.924     0.108     1.714     2.047
    16   1 H        0.925     0.104     1.747     2.067
    17   1 H        0.925     0.134     1.505     1.918
    18   1 H        0.926     0.124     1.585     1.969
    19   1 H        0.000     0.010     7.190     4.903
    20   1 H        0.925     0.135     1.496     1.913
    21   1 H        0.926     0.130     1.537     1.939
    22   1 H        0.925     0.084     1.935     2.176
    23   1 H        0.925     0.084     1.941     2.179
    24   1 H        0.925     0.127     1.555     1.950
    25   1 H        0.860     0.229     0.970     1.543

Wiberg/Mayer (AO) data.
largest (>0.10) Wiberg bond orders for each atom

     #   Z sym  total        # sym  WBO       # sym  WBO       # sym  WBO
 ---------------------------------------------------------------------------
     1   6 C    3.917 --     2 N    0.987    16 H    0.964    17 H    0.962
                            15 H    0.956
     2   7 N    3.649 --     3 C    1.379     6 C    1.146     1 C    0.987
     3   6 C    3.821 --     2 N    1.379     4 N    1.266    18 H    0.953
     4   7 N    3.579 --     3 C    1.266     5 C    1.194    25 H    0.919
     5   6 C    3.899 --     6 C    1.328     4 N    1.194    13 N    1.191
     6   6 C    3.909 --     5 C    1.328     2 N    1.146     7 C    1.117
     7   6 C    3.868 --     8 O    1.674     6 C    1.117     9 N    0.985
     8   8 O    1.956 --     7 C    1.674     9 N    0.107
     9   7 N    3.615 --    10 C    1.348    11 C    1.014     7 C    0.985
                             8 O    0.107
    10   6 C    3.324 --     9 N    1.348    21 H    0.959    20 H    0.933
    11   6 C    3.903 --    12 O    1.708    13 N    1.088     9 N    1.014
    12   8 O    2.020 --    11 C    1.708    13 N    0.135
    13   7 N    3.565 --     5 C    1.191    11 C    1.088    14 C    0.970
                            12 O    0.135
    14   6 C    3.923 --    23 H    0.972    22 H    0.971    13 N    0.970
                            24 H    0.965
    15   1 H    0.983 --     1 C    0.956
    16   1 H    0.986 --     1 C    0.964
    17   1 H    0.982 --     1 C    0.962
    18   1 H    0.984 --     3 C    0.953
    19   1 H    0.029
    20   1 H    0.981 --    10 C    0.933
    21   1 H    0.981 --    10 C    0.959
    22   1 H    0.991 --    14 C    0.971
    23   1 H    0.991 --    14 C    0.972
    24   1 H    0.983 --    14 C    0.965
    25   1 H    0.947 --     4 N    0.919
 ---------------------------------------------------------------------------

molecular dipole:
                 x           y           z       tot (Debye)
 q only:        2.329      -2.026       0.023
   full:        2.573      -2.472       0.041       9.069

           -------------------------------------------------
          | TOTAL ENERGY              -42.105268471171 Eh   |
          | GRADIENT NORM               0.002646740344 Eh/α |
          | HOMO-LUMO GAP               0.086999051069 eV   |
           -------------------------------------------------

 * finished run on 2024/06/05 at 20:00:16.637
