   * xtb version 6.6.1 (8d0f1dd) compiled by 'conda@1efc2f54142f' on 2023-08-01
          program call               : xtb struc.xyz --opt loose --input .xc1 --gfn2

   ID    Z sym.   atoms
    1    6 C      1, 3, 5-7, 10, 11, 14
    2    7 N      2, 4, 9, 13
    3    8 O      8, 12
    4    1 H      15-25
constraining bond 7 19 to    5.1400000 Å, actual value:    2.4428892 Å

          :  Hamiltonian                  GFN2-xTB          :
 * total energy  :   -29.2713637 Eh     change       -0.2401990E-09 Eh
 * total energy  :   -33.9466760 Eh     change       -0.4675312E+01 Eh
 * total energy  :   -37.5641003 Eh     change       -0.3617424E+01 Eh
 * total energy  :   -39.8005024 Eh     change       -0.2236402E+01 Eh
 * total energy  :   -41.0853977 Eh     change       -0.1284895E+01 Eh
 * total energy  :   -41.6217538 Eh     change       -0.5363561E+00 Eh
 * total energy  :   -41.7816732 Eh     change       -0.1599194E+00 Eh
 * total energy  :   -41.8662118 Eh     change       -0.8453862E-01 Eh
 * total energy  :   -41.9163187 Eh     change       -0.5010697E-01 Eh
 * total energy  :   -41.9386883 Eh     change       -0.2236960E-01 Eh
 * total energy  :   -42.1330061 Eh     change       -0.1390533E-02 Eh
 * total energy  :   -42.1337854 Eh     change       -0.7792900E-03 Eh
 * total energy  :   -42.1344841 Eh     change       -0.6987093E-03 Eh
 * total energy  :   -42.1349610 Eh     change       -0.4768931E-03 Eh
 * total energy  :   -42.1354309 Eh     change       -0.4699463E-03 Eh
 * total energy  :   -42.1356986 Eh     change       -0.2677307E-03 Eh
 * total energy  :   -42.1358250 Eh     change       -0.1263611E-03 Eh
 * total energy  :   -42.1359243 Eh     change       -0.9924926E-04 Eh
 * total energy  :   -42.1359618 Eh     change       -0.3758643E-04 Eh
   *** GEOMETRY OPTIMIZATION CONVERGED AFTER 45 ITERATIONS ***

 final structure:
================
25
 xtb: 6.6.1 (8d0f1dd)
C            3.23165683110948        1.08113164121501       -0.03988343903910
N            2.29810875688756       -0.01111648755406       -0.02438951708710
C            2.59470178820230       -1.31560602902420        0.00270258966858
N            1.44947813494214       -2.04585171026415        0.01971759565325
C            0.39701405505059       -1.17858303932437        0.00662701361946
C            0.92417229292202        0.10979757455084       -0.02119638966464
C            0.09882051511510        1.27494301782178       -0.04413394561987
O            0.45386126271110        2.43586907731883       -0.09307319845444
N           -1.29788058819663        0.93288940625517       -0.00172728042817
C           -2.17562953944855        1.94817874993300        0.01644849467396
C           -1.83574801341880       -0.38190542138493        0.02422687160464
O           -3.02427527756333       -0.56872585929898        0.05632856362513
N           -0.92850188731496       -1.43963706119646        0.00610028864628
C           -1.43547212752569       -2.79806314911853        0.02352750133130
H            3.72437699318520        1.17553517481678        0.92966637952937
H            3.99085375298093        0.91838354768085       -0.80444071259276
H            2.68973329414645        2.00291440532083       -0.24859657446711
H            3.58363545448989       -1.72570785640070        0.01063840551495
H           -3.23813138541849        5.18317202293967        0.04618292829743
H           -1.78484460053458        2.95057656772036       -0.00467735310459
H           -3.22635981418795        1.72473092820551        0.04422490282626
H           -1.12674705832107       -3.30946309624539        0.93602072903494
H           -1.08276555537365       -3.34453307535915       -0.85160547542406
H           -2.52314116401652       -2.74713760707391       -0.00278607314839
H            1.40351539367750       -3.05355317993379        0.04526931290459

          :  Hamiltonian                  GFN2-xTB          :
         :: total energy             -42.135961848723 Eh    ::
         :: gradient norm              0.002228602016 Eh/a0 ::
         :: HOMO-LUMO gap              0.118622518255 eV    ::
         :: SCC energy               -42.651113708829 Eh    ::
         :: -> dispersion             -0.022571521817 Eh    ::
         :: repulsion energy           0.515078130794 Eh    ::

    * Orbital Energies and Occupations

         #    Occupation            Energy/Eh            Energy/eV
      -------------------------------------------------------------
         1        2.0000           -0.9047773             -24.6202
       ...           ...                  ...                  ...
        25        1.9994           -0.6714442             -18.2709
        26        1.9993           -0.6674926             -18.1634
        27        1.9992           -0.6623053             -18.0222
        28        1.9970           -0.6313090             -17.1788
        29        1.9966           -0.6285362             -17.1033
        30        1.9965           -0.6276709             -17.0798
        31        1.9944           -0.6165955             -16.7784
        32        1.9936           -0.6136312             -16.6978
        33        1.9931           -0.6115275             -16.6405
        34        1.9795           -0.5855764             -15.9343
        35        1.9557           -0.5670178             -15.4293
        36        1.9321           -0.5566029             -15.1459
        37        0.9711           -0.4757116             -12.9448 (HOMO)
        38        0.8799           -0.4713523             -12.8261 (LUMO)
        39        0.2216           -0.4276203             -11.6361
        40        0.0687           -0.3978595             -10.8263
        41        0.0233           -0.3716622             -10.1134
        42        0.0007           -0.2866509              -7.8002
        43        0.0000           -0.2067776              -5.6267
        44        0.0000           -0.1942824              -5.2867
        45        0.0000           -0.1488291              -4.0498
        46        0.0000           -0.1434658              -3.9039
        47                         -0.0756838              -2.0595
        48                         -0.0513778              -1.3981
       ...                                ...                  ...
        67                          0.5396777              14.6854
      -------------------------------------------------------------
                  HL-Gap            0.0043593 Eh            0.1186 eV

     #   Z          covCN         q      C6AA      α(0)
     1   6 C        3.691    -0.091    22.435     6.778
     2   7 N        2.823     0.069    20.036     6.648
     3   6 C        3.037     0.041    27.057     8.532
     4   7 N        2.783    -0.062    22.443     7.036
     5   6 C        3.034     0.102    25.706     8.316
     6   6 C        3.098    -0.020    28.374     8.730
     7   6 C        2.775     0.250    22.800     7.820
     8   8 O        0.857    -0.358    20.867     6.125
     9   7 N        2.741    -0.029    21.805     6.935
    10   6 C        2.815    -0.024    28.580     8.759
    11   6 C        2.737     0.305    21.815     7.647
    12   8 O        0.859    -0.349    20.685     6.098
    13   7 N        2.736    -0.046    22.134     6.987
    14   6 C        3.698    -0.073    22.065     6.718
    15   1 H        0.924     0.107     1.723     2.052
    16   1 H        0.925     0.104     1.750     2.069
    17   1 H        0.925     0.133     1.514     1.924
    18   1 H        0.926     0.120     1.612     1.986
    19   1 H        0.000     0.029     6.491     4.658
    20   1 H        0.926     0.133     1.511     1.923
    21   1 H        0.926     0.130     1.531     1.935
    22   1 H        0.924     0.087     1.909     2.161
    23   1 H        0.924     0.087     1.912     2.163
    24   1 H        0.925     0.128     1.547     1.945
    25   1 H        0.860     0.226     0.982     1.552

Wiberg/Mayer (AO) data.
largest (>0.10) Wiberg bond orders for each atom

     #   Z sym  total        # sym  WBO       # sym  WBO       # sym  WBO
 ---------------------------------------------------------------------------
     1   6 C    3.911 --     2 N    0.990    16 H    0.962    17 H    0.959
                            15 H    0.954
     2   7 N    3.599 --     3 C    1.341     6 C    1.143     1 C    0.990
     3   6 C    3.734 --     2 N    1.341     4 N    1.247    18 H    0.955
     4   7 N    3.541 --     3 C    1.247     5 C    1.189    25 H    0.921
     5   6 C    3.857 --     6 C    1.311     4 N    1.189    13 N    1.183
     6   6 C    3.868 --     5 C    1.311     2 N    1.143     7 C    1.125
     7   6 C    3.838 --     8 O    1.646     6 C    1.125     9 N    0.981
     8   8 O    1.902 --     7 C    1.646
     9   7 N    3.585 --    10 C    1.331    11 C    1.022     7 C    0.981
    10   6 C    3.314 --     9 N    1.331    21 H    0.957    20 H    0.954
    11   6 C    3.879 --    12 O    1.683    13 N    1.084     9 N    1.022
    12   8 O    1.975 --    11 C    1.683    13 N    0.125
    13   7 N    3.526 --     5 C    1.183    11 C    1.084    14 C    0.974
                            12 O    0.125
    14   6 C    3.916 --    13 N    0.974    23 H    0.968    22 H    0.967
                            24 H    0.962
    15   1 H    0.978 --     1 C    0.954
    16   1 H    0.982 --     1 C    0.962
    17   1 H    0.980 --     1 C    0.959
    18   1 H    0.984 --     3 C    0.955
    19   1 H    0.003
    20   1 H    0.979 --    10 C    0.954
    21   1 H    0.979 --    10 C    0.957
    22   1 H    0.985 --    14 C    0.967
    23   1 H    0.986 --    14 C    0.968
    24   1 H    0.981 --    14 C    0.962
    25   1 H    0.948 --     4 N    0.921
 ---------------------------------------------------------------------------

molecular dipole:
                 x           y           z       tot (Debye)
 q only:        2.165      -1.883       0.034
   full:        2.387      -2.315       0.052       8.453

           -------------------------------------------------
          | TOTAL ENERGY              -42.135961848723 Eh   |
          | GRADIENT NORM               0.002228602016 Eh/α |
          | HOMO-LUMO GAP               0.118622518255 eV   |
           -------------------------------------------------

 * finished run on 2024/06/05 at 19:58:50.454
