   * xtb version 6.6.1 (8d0f1dd) compiled by 'conda@1efc2f54142f' on 2023-08-01
          program call               : xtb xtbopt.xyz --opt crude --input .xc2 --gfn2

   ID    Z sym.   atoms
    1    6 C      1, 3, 5-7, 10, 11, 14
    2    7 N      2, 4, 9, 13
    3    8 O      8, 12
    4    1 H      15-25

          :  Hamiltonian                  GFN2-xTB          :
 * total energy  :   -42.1060057 Eh     change       -0.9023893E-12 Eh
   *** GEOMETRY OPTIMIZATION CONVERGED AFTER 1 ITERATIONS ***

 final structure:
================
25
 xtb: 6.6.1 (8d0f1dd)
C            3.12161050134155        1.16504001615522       -0.05057026591053
N            2.21510601570751        0.04886644897446       -0.02660907083859
C            2.53703737841730       -1.24148487005397        0.00241875583692
N            1.41246147447654       -1.99505305977662        0.02705666259505
C            0.34065529609373       -1.15404157137481        0.01338240533016
C            0.83946450619733        0.14209825276530       -0.01909174157151
C           -0.01056607538841        1.29380386715844       -0.04651128826167
O            0.32298387720123        2.45753439267489       -0.08578135846280
N           -1.39797717869578        0.92039026400283       -0.02482314636044
C           -2.29737780434106        1.91329718348335       -0.02281660050129
C           -1.90979817587510       -0.41431149443768       -0.01153923576006
O           -3.09088385785325       -0.62339369352606       -0.02202780991116
N           -0.97670232947849       -1.44497333791172        0.01668409055753
C           -1.45012022301055       -2.81722896267663        0.05089085819311
H            3.60768302165812        1.28047878711316        0.91937691306079
H            3.88628259663039        1.01447361521519       -0.81137028666427
H            2.55643291698190        2.07039001287733       -0.26796602208962
H            3.53431828073658       -1.63332905968199        0.00621489997727
H           -1.43893827609903        4.70008154631844        0.17850300596691
H           -1.93493502056727        2.94139983776698       -0.00789201554925
H           -3.34205054439957        1.66580406521563       -0.01486741405635
H           -1.12763283635220       -3.30711995391312        0.96986328480249
H           -1.08739281964333       -3.36655330028311       -0.81780755834709
H           -2.53866617290682       -2.79350920777218        0.02585955859758
H            1.38943696326860       -3.00442123671350        0.05059499726676

          :  Hamiltonian                  GFN2-xTB          :
         :: total energy             -42.106005670030 Eh    ::
         :: gradient norm              0.003277075245 Eh/a0 ::
         :: HOMO-LUMO gap              0.088607124809 eV    ::
         :: SCC energy               -42.624672442479 Eh    ::
         :: -> dispersion             -0.022907707677 Eh    ::
         :: repulsion energy           0.518576718815 Eh    ::

    * Orbital Energies and Occupations

         #    Occupation            Energy/Eh            Energy/eV
      -------------------------------------------------------------
         1        2.0000           -0.9108218             -24.7847
       ...           ...                  ...                  ...
        25        2.0000           -0.6715013             -18.2725
        26        2.0000           -0.6688200             -18.1995
        27        2.0000           -0.6626552             -18.0318
        28        1.9999           -0.6327899             -17.2191
        29        1.9999           -0.6298013             -17.1378
        30        1.9999           -0.6278573             -17.0849
        31        1.9998           -0.6186751             -16.8350
        32        1.9997           -0.6140255             -16.7085
        33        1.9997           -0.6135672             -16.6960
        34        1.9983           -0.5852878             -15.9265
        35        1.9943           -0.5664520             -15.4139
        36        1.9906           -0.5584779             -15.1970
        37        0.9904           -0.4734434             -12.8831 (HOMO)
        38        0.8880           -0.4701872             -12.7944 (LUMO)
        39        0.1185           -0.4299722             -11.7001
        40        0.0179           -0.3992025             -10.8629
        41        0.0032           -0.3719185             -10.1204
        42        0.0000           -0.2873262              -7.8185
        43        0.0000           -0.2083784              -5.6703
        44                         -0.1965522              -5.3485
        45                         -0.1505660              -4.0971
        46                         -0.1455991              -3.9620
        47                         -0.0784584              -2.1350
        48                         -0.0547532              -1.4899
       ...                                ...                  ...
        67                          0.5477713              14.9056
      -------------------------------------------------------------
                  HL-Gap            0.0032563 Eh            0.0886 eV

     #   Z          covCN         q      C6AA      α(0)
     1   6 C        3.691    -0.094    22.484     6.785
     2   7 N        2.829     0.077    19.899     6.625
     3   6 C        3.050     0.047    26.905     8.507
     4   7 N        2.791    -0.058    22.358     7.023
     5   6 C        3.041     0.105    25.634     8.304
     6   6 C        3.110    -0.023    28.434     8.736
     7   6 C        2.776     0.253    22.742     7.811
     8   8 O        0.857    -0.365    20.986     6.142
     9   7 N        2.740    -0.031    21.849     6.942
    10   6 C        2.813    -0.021    28.525     8.751
    11   6 C        2.736     0.309    21.757     7.637
    12   8 O        0.859    -0.350    20.707     6.101
    13   7 N        2.737    -0.049    22.186     6.996
    14   6 C        3.699    -0.073    22.077     6.720
    15   1 H        0.924     0.108     1.715     2.048
    16   1 H        0.925     0.104     1.749     2.068
    17   1 H        0.925     0.134     1.504     1.918
    18   1 H        0.926     0.123     1.586     1.970
    19   1 H        0.000     0.014     7.057     4.857
    20   1 H        0.924     0.136     1.487     1.907
    21   1 H        0.926     0.130     1.536     1.938
    22   1 H        0.925     0.084     1.936     2.176
    23   1 H        0.925     0.084     1.942     2.179
    24   1 H        0.925     0.127     1.557     1.951
    25   1 H        0.860     0.229     0.970     1.543

Wiberg/Mayer (AO) data.
largest (>0.10) Wiberg bond orders for each atom

     #   Z sym  total        # sym  WBO       # sym  WBO       # sym  WBO
 ---------------------------------------------------------------------------
     1   6 C    3.917 --     2 N    0.987    16 H    0.964    17 H    0.961
                            15 H    0.956
     2   7 N    3.648 --     3 C    1.378     6 C    1.146     1 C    0.987
     3   6 C    3.819 --     2 N    1.378     4 N    1.266    18 H    0.953
     4   7 N    3.579 --     3 C    1.266     5 C    1.194    25 H    0.919
     5   6 C    3.898 --     6 C    1.328     4 N    1.194    13 N    1.188
     6   6 C    3.909 --     5 C    1.328     2 N    1.146     7 C    1.117
     7   6 C    3.866 --     8 O    1.670     6 C    1.117     9 N    0.988
     8   8 O    1.953 --     7 C    1.670     9 N    0.107
     9   7 N    3.614 --    10 C    1.349    11 C    1.008     7 C    0.988
                             8 O    0.107
    10   6 C    3.307 --     9 N    1.349    21 H    0.958    20 H    0.913
    11   6 C    3.902 --    12 O    1.709    13 N    1.091     9 N    1.008
    12   8 O    2.021 --    11 C    1.709    13 N    0.135
    13   7 N    3.565 --     5 C    1.188    11 C    1.091    14 C    0.970
                            12 O    0.135
    14   6 C    3.924 --    23 H    0.972    22 H    0.971    13 N    0.970
                            24 H    0.965
    15   1 H    0.983 --     1 C    0.956
    16   1 H    0.986 --     1 C    0.964
    17   1 H    0.982 --     1 C    0.961
    18   1 H    0.984 --     3 C    0.953
    19   1 H    0.054
    20   1 H    0.981 --    10 C    0.913
    21   1 H    0.980 --    10 C    0.958
    22   1 H    0.991 --    14 C    0.971
    23   1 H    0.991 --    14 C    0.972
    24   1 H    0.983 --    14 C    0.965
    25   1 H    0.947 --     4 N    0.919
 ---------------------------------------------------------------------------

molecular dipole:
                 x           y           z       tot (Debye)
 q only:        2.295      -1.971       0.058
   full:        2.539      -2.420       0.083       8.918

           -------------------------------------------------
          | TOTAL ENERGY              -42.106005670030 Eh   |
          | GRADIENT NORM               0.003277075245 Eh/α |
          | HOMO-LUMO GAP               0.088607124809 eV   |
           -------------------------------------------------

 * finished run on 2024/06/05 at 19:58:00.593
