   * xtb version 6.6.1 (8d0f1dd) compiled by 'conda@1efc2f54142f' on 2023-08-01
          program call               : xtb struc.xyz --opt loose --input .xc1 --gfn2

   ID    Z sym.   atoms
    1    6 C      1, 3, 5-7, 10, 11, 14
    2    7 N      2, 4, 9, 13
    3    8 O      8, 12
    4    1 H      15-25
constraining bond 12 20 to    4.6333300 Å, actual value:    2.6315711 Å

          :  Hamiltonian                  GFN2-xTB          :
 * total energy  :   -49.4147466 Eh     change       -0.2401990E-09 Eh
 * total energy  :   -55.7107635 Eh     change       -0.6296017E+01 Eh
 * total energy  :   -63.9128852 Eh     change       -0.8202122E+01 Eh
 * total energy  :   -72.0082263 Eh     change       -0.8095341E+01 Eh
 * total energy  :   -71.7314526 Eh     change        0.2767737E+00 Eh
 * total energy  :   -72.0584807 Eh     change       -0.3270280E+00 Eh
 * total energy  :   -72.0883889 Eh     change       -0.2990819E-01 Eh
 * total energy  :   -72.1288262 Eh     change       -0.4043739E-01 Eh
 * total energy  :   -72.1574003 Eh     change       -0.2857409E-01 Eh
 * total energy  :   -72.1730802 Eh     change       -0.1567984E-01 Eh
 * total energy  :   -72.2443475 Eh     change        0.2321831E-04 Eh
 * total energy  :   -72.2443228 Eh     change        0.2473648E-04 Eh
 * total energy  :   -72.2443973 Eh     change       -0.7452071E-04 Eh
 * total energy  :   -72.2444034 Eh     change       -0.6159068E-05 Eh
 * total energy  :   -72.2444147 Eh     change       -0.1126616E-04 Eh
 * total energy  :   -72.2444323 Eh     change       -0.1761432E-04 Eh
 * total energy  :   -72.2444456 Eh     change       -0.1324377E-04 Eh
 * total energy  :   -72.2444644 Eh     change       -0.1886462E-04 Eh
 * total energy  :   -72.2444811 Eh     change       -0.1669611E-04 Eh
   *** GEOMETRY OPTIMIZATION CONVERGED AFTER 52 ITERATIONS ***

 final structure:
================
25
 xtb: 6.6.1 (8d0f1dd)
C            3.31173537936080        1.10679033493680        0.04543151068317
N            2.31350291182475        0.07420521408524        0.02837093731600
C            2.53698895124419       -1.25263163356657        0.00599728135480
N            1.34547392580618       -1.91667596246557       -0.01733306702440
C            0.34762248542360       -0.98540087556606       -0.00818089057419
C            0.94693792743533        0.27591793773316        0.01996123315846
C            0.20859566942479        1.48655547635258        0.04420094352773
O            0.62133257843197        2.62988594007392        0.06811152292993
N           -1.23773961285135        1.23414550279907        0.04093790517066
C           -2.01482818509904        2.33400548806567        0.08954718979404
C           -1.77264419057070       -0.02034560249592       -0.02199222635945
O           -3.11017589842998       -0.18079384450682       -0.05422603295935
N           -0.99825688520782       -1.15839924594634       -0.02974788333093
C           -1.58014560789737       -2.48200897275130       -0.09226272038925
H            3.94052076412033        1.01428444643801        0.93186992162810
H            3.94365229336026        1.03970447879773       -0.84122885050495
H            2.81018878645125        2.07332362246004        0.05850297392432
H            3.49785608770461       -1.72037777412963        0.00729901126610
H           -1.50977701558713        3.27813545424764        0.11842780111630
H           -3.40331541508587        0.09130685239813       -0.12605517833799
H           -3.08191595696131        2.26739518681804        0.11741439872720
H           -1.23489166836694       -3.08036805385286        0.75150406956676
H           -1.30358004804551       -2.97167092791369       -1.02753567730198
H           -2.66184320807951       -2.40003249760821       -0.04337607443451
H            1.24513744569470       -2.91871200280285       -0.03446648104624

          :  Hamiltonian                  GFN2-xTB          :
         :: total energy             -72.244481135113 Eh    ::
         :: gradient norm              0.003436670269 Eh/a0 ::
         :: HOMO-LUMO gap              1.325910764272 eV    ::
         :: SCC energy               -42.744489743310 Eh    ::
         :: -> dispersion             -0.022940061404 Eh    ::
         :: repulsion energy           2.402484910633 Eh    ::

    * Orbital Energies and Occupations

         #    Occupation            Energy/Eh            Energy/eV
      -------------------------------------------------------------
         1        2.0000           -0.9177249             -24.9726
       ...           ...                  ...                  ...
        25        1.9998           -0.6647416             -18.0885
        26        1.9997           -0.6591794             -17.9372
        27        1.9997           -0.6536988             -17.7880
        28        1.9994           -0.6394661             -17.4008
        29        1.9992           -0.6312084             -17.1761
        30        1.9990           -0.6269652             -17.0606
        31        1.9983           -0.6148725             -16.7315
        32        1.9981           -0.6121211             -16.6567
        33        1.9968           -0.5993969             -16.3104
        34        1.9958           -0.5929472             -16.1349
        35        1.9759           -0.5509150             -14.9912
        36        1.9751           -0.5501862             -14.9713
        37        1.3815           -0.4653653             -12.6632 (HOMO)
        38        0.4461           -0.4166390             -11.3373 (LUMO)
        39        0.1316           -0.3832763             -10.4295
        40        0.1029           -0.3770497             -10.2600
        41        0.0015           -0.2746888              -7.4747
        42        0.0001           -0.2039156              -5.5488
        43        0.0000           -0.1812262              -4.9314
        44        0.0000           -0.1549012              -4.2151
        45        0.0000           -0.1246764              -3.3926
        46        0.0000           -0.0752385              -2.0473
        47                         -0.0408521              -1.1116
        48                         -0.0168814              -0.4594
       ...                                ...                  ...
        67                          5.3391743             145.2863
      -------------------------------------------------------------
                  HL-Gap            0.0487263 Eh            1.3259 eV

     #   Z          covCN         q      C6AA      α(0)
     1   6 C        3.690    -0.089    22.393     6.772
     2   7 N        2.817     0.056    20.261     6.685
     3   6 C        3.022     0.027    27.365     8.581
     4   7 N        2.773    -0.070    22.602     7.061
     5   6 C        3.043     0.082    26.133     8.384
     6   6 C        3.078    -0.023    28.503     8.753
     7   6 C        2.774     0.236    23.056     7.864
     8   8 O        0.857    -0.371    21.118     6.161
     9   7 N        2.737    -0.014    21.528     6.891
    10   6 C        2.809    -0.075    29.864     8.953
    11   6 C        2.802     0.200    23.748     7.983
    12   8 O        1.664    -0.371    20.285     6.080
    13   7 N        2.735    -0.018    21.603     6.903
    14   6 C        3.697    -0.081    22.224     6.743
    15   1 H        0.924     0.098     1.807     2.102
    16   1 H        0.924     0.097     1.809     2.103
    17   1 H        0.925     0.129     1.546     1.945
    18   1 H        0.927     0.110     1.700     2.039
    19   1 H        0.926     0.118     1.626     1.994
    20   1 H        0.864     0.370     0.538     1.148
    21   1 H        0.927     0.077     2.013     2.219
    22   1 H        0.924     0.090     1.875     2.141
    23   1 H        0.924     0.091     1.872     2.140
    24   1 H        0.925     0.116     1.645     2.006
    25   1 H        0.860     0.216     1.028     1.588

Wiberg/Mayer (AO) data.
largest (>0.10) Wiberg bond orders for each atom

     #   Z sym  total        # sym  WBO       # sym  WBO       # sym  WBO
 ---------------------------------------------------------------------------
     1   6 C    3.921 --     2 N    0.992    17 H    0.962    15 H    0.961
                            16 H    0.961
     2   7 N    3.551 --     3 C    1.304     6 C    1.134     1 C    0.992
     3   6 C    3.657 --     2 N    1.304     4 N    1.222    18 H    0.958
     4   7 N    3.495 --     3 C    1.222     5 C    1.181    25 H    0.926
     5   6 C    3.821 --     6 C    1.288     4 N    1.181    13 N    1.156
     6   6 C    3.854 --     5 C    1.288     7 C    1.156     2 N    1.134
     7   6 C    3.800 --     8 O    1.636     6 C    1.156     9 N    0.921
     8   8 O    1.904 --     7 C    1.636
     9   7 N    3.615 --    10 C    1.281    11 C    1.186     7 C    0.921
    10   6 C    3.395 --     9 N    1.281    21 H    0.972    19 H    0.960
    11   6 C    3.625 --     9 N    1.186    13 N    1.145    12 O    1.106
    12   8 O    2.122 --    11 C    1.106    20 H    0.855
    13   7 N    3.495 --     5 C    1.156    11 C    1.145    14 C    0.978
    14   6 C    3.927 --    13 N    0.978    24 H    0.969    22 H    0.969
                            23 H    0.968
    15   1 H    0.981 --     1 C    0.961
    16   1 H    0.981 --     1 C    0.961
    17   1 H    0.982 --     1 C    0.962
    18   1 H    0.987 --     3 C    0.958
    19   1 H    0.984 --    10 C    0.960
    20   1 H    0.863 --    12 O    0.855
    21   1 H    0.992 --    10 C    0.972
    22   1 H    0.986 --    14 C    0.969
    23   1 H    0.985 --    14 C    0.968
    24   1 H    0.986 --    14 C    0.969
    25   1 H    0.953 --     4 N    0.926
 ---------------------------------------------------------------------------

molecular dipole:
                 x           y           z       tot (Debye)
 q only:        0.601      -2.263      -0.084
   full:        0.355      -2.602      -0.127       6.683

           -------------------------------------------------
          | TOTAL ENERGY              -72.244481135113 Eh   |
          | GRADIENT NORM               0.003436670269 Eh/α |
          | HOMO-LUMO GAP               1.325910764272 eV   |
           -------------------------------------------------

 * finished run on 2024/06/05 at 19:58:48.125
