   * xtb version 6.6.1 (8d0f1dd) compiled by 'conda@1efc2f54142f' on 2023-08-01
          program call               : xtb xtbopt.xyz --opt crude --input .xc2 --gfn2

   ID    Z sym.   atoms
    1    6 C      1, 3, 5-7, 10, 11, 14
    2    7 N      2, 4, 9, 13
    3    8 O      8, 12
    4    1 H      15-25
########################################################################
[WARNING] Please study the warnings concerning your input carefully
-1- readin_getIntValue: could not parse ''
########################################################################

          :  Hamiltonian                  GFN2-xTB          :
 * total energy  :   -40.3418984 Eh     change       -0.1847411E-12 Eh
 * total energy  :   -42.1595803 Eh     change       -0.1817682E+01 Eh
 * total energy  :   -42.1894413 Eh     change       -0.2986100E-01 Eh
 * total energy  :   -42.1921454 Eh     change       -0.2704078E-02 Eh
 * total energy  :   -42.1929014 Eh     change       -0.7559862E-03 Eh
 * total energy  :   -42.1935829 Eh     change       -0.6814948E-03 Eh
 * total energy  :   -42.1946142 Eh     change       -0.1031295E-02 Eh
 * total energy  :   -42.1957747 Eh     change       -0.1160533E-02 Eh
 * total energy  :   -42.1965896 Eh     change       -0.8148506E-03 Eh
 * total energy  :   -42.1969232 Eh     change       -0.3336558E-03 Eh
 * total energy  :   -42.1970821 Eh     change       -0.1588794E-03 Eh
 * total energy  :   -42.1972235 Eh     change       -0.1414096E-03 Eh
 * total energy  :   -42.1974363 Eh     change       -0.2128086E-03 Eh
 * total energy  :   -42.1976743 Eh     change       -0.2380138E-03 Eh
 * total energy  :   -42.1978760 Eh     change       -0.2016686E-03 Eh
   *** GEOMETRY OPTIMIZATION CONVERGED AFTER 15 ITERATIONS ***

 final structure:
================
25
 xtb: 6.6.1 (8d0f1dd)
C            3.30404614032188        1.11747218446802        0.03143187502645
N            2.32033743842325        0.07062648951484        0.01088904754111
C            2.55496776022470       -1.25376001578274       -0.00904342469012
N            1.36878331233659       -1.92750131678285       -0.01974230085255
C            0.36236468881637       -1.00581444319805       -0.00623053720916
C            0.95128005112285        0.26004082919658        0.01290447793152
C            0.20108902903561        1.46365489984128        0.04161754136680
O            0.60718593097156        2.61012551046715        0.06809090114699
N           -1.24072644977680        1.20150484982947        0.05596256777920
C           -2.01572635039982        2.30796361263755        0.13128118917480
C           -1.76080667624328       -0.05191999519469       -0.04143860351442
O           -3.08471716266614       -0.27168589497343       -0.08334997105713
N           -0.98245728338186       -1.18644290067729       -0.03067970731430
C           -1.56031807049108       -2.51338460175769       -0.06597305744922
H            3.91304652607093        1.05159192202055        0.93448122630419
H            3.95760574451861        1.04342817251169       -0.83855623584209
H            2.78787733482555        2.07634635016085        0.01650311185580
H            3.51860352950346       -1.71633342724473       -0.01515741925697
H           -1.50364493957026        3.24821053294816        0.15748158921147
H           -3.59261448755001        0.51875391831411       -0.30489198818573
H           -3.07927422391023        2.24995399633265        0.24715665386761
H           -1.30275858560305       -3.05696986508604        0.84457537763136
H           -1.19281228971692       -3.05872917808074       -0.93679638230292
H           -2.64132940300865       -2.42884662938785       -0.13039521169243
H            1.27042995024688       -2.93004645847664       -0.03894910156987

          :  Hamiltonian                  GFN2-xTB          :
         :: total energy             -42.197875995613 Eh    ::
         :: gradient norm              0.007960887599 Eh/a0 ::
         :: HOMO-LUMO gap              1.344446917767 eV    ::
         :: SCC energy               -42.708216233500 Eh    ::
         :: -> dispersion             -0.022919593417 Eh    ::
         :: repulsion energy           0.510234975955 Eh    ::

    * Orbital Energies and Occupations

         #    Occupation            Energy/Eh            Energy/eV
      -------------------------------------------------------------
         1        2.0000           -0.8926449             -24.2901
       ...           ...                  ...                  ...
        25        1.9998           -0.6654745             -18.1085
        26        1.9997           -0.6584166             -17.9164
        27        1.9997           -0.6560015             -17.8507
        28        1.9995           -0.6414960             -17.4560
        29        1.9991           -0.6287087             -17.1080
        30        1.9989           -0.6251425             -17.0110
        31        1.9982           -0.6133576             -16.6903
        32        1.9981           -0.6121961             -16.6587
        33        1.9971           -0.6017950             -16.3757
        34        1.9958           -0.5929611             -16.1353
        35        1.9755           -0.5506897             -14.9850
        36        1.9747           -0.5499406             -14.9646
        37        1.3879           -0.4659115             -12.6781 (HOMO)
        38        0.4414           -0.4165040             -11.3336 (LUMO)
        39        0.1331           -0.3837404             -10.4421
        40        0.1004           -0.3766437             -10.2490
        41        0.0015           -0.2748449              -7.4789
        42        0.0001           -0.2042109              -5.5569
        43        0.0000           -0.1834139              -4.9909
        44        0.0000           -0.1544975              -4.2041
        45        0.0000           -0.1248950              -3.3986
        46        0.0000           -0.1066719              -2.9027
        47        0.0000           -0.0499220              -1.3584
        48                         -0.0347100              -0.9445
       ...                                ...                  ...
        67                          0.5402875              14.7020
      -------------------------------------------------------------
                  HL-Gap            0.0494075 Eh            1.3444 eV

     #   Z          covCN         q      C6AA      α(0)
     1   6 C        3.690    -0.088    22.387     6.771
     2   7 N        2.817     0.055    20.272     6.687
     3   6 C        3.021     0.029    27.339     8.577
     4   7 N        2.774    -0.071    22.609     7.062
     5   6 C        3.042     0.083    26.122     8.383
     6   6 C        3.079    -0.023    28.501     8.752
     7   6 C        2.777     0.237    23.042     7.862
     8   8 O        0.857    -0.375    21.181     6.170
     9   7 N        2.737    -0.020    21.644     6.910
    10   6 C        2.808    -0.083    30.062     8.983
    11   6 C        2.747     0.210    23.546     7.945
    12   8 O        1.660    -0.348    19.867     6.017
    13   7 N        2.736    -0.015    21.551     6.895
    14   6 C        3.697    -0.076    22.138     6.730
    15   1 H        0.924     0.098     1.807     2.102
    16   1 H        0.924     0.097     1.813     2.105
    17   1 H        0.925     0.129     1.545     1.944
    18   1 H        0.927     0.110     1.700     2.039
    19   1 H        0.926     0.120     1.617     1.988
    20   1 H        0.805     0.352     0.584     1.200
    21   1 H        0.926     0.069     2.096     2.264
    22   1 H        0.924     0.090     1.883     2.146
    23   1 H        0.924     0.087     1.910     2.161
    24   1 H        0.925     0.121     1.605     1.981
    25   1 H        0.860     0.216     1.028     1.588

Wiberg/Mayer (AO) data.
largest (>0.10) Wiberg bond orders for each atom

     #   Z sym  total        # sym  WBO       # sym  WBO       # sym  WBO
 ---------------------------------------------------------------------------
     1   6 C    3.921 --     2 N    0.992    16 H    0.962    17 H    0.961
                            15 H    0.961
     2   7 N    3.551 --     3 C    1.305     6 C    1.133     1 C    0.992
     3   6 C    3.659 --     2 N    1.305     4 N    1.223    18 H    0.958
     4   7 N    3.496 --     3 C    1.223     5 C    1.181    25 H    0.926
     5   6 C    3.823 --     6 C    1.290     4 N    1.181    13 N    1.157
     6   6 C    3.855 --     5 C    1.290     7 C    1.156     2 N    1.133
     7   6 C    3.800 --     8 O    1.633     6 C    1.156     9 N    0.924
     8   8 O    1.902 --     7 C    1.633
     9   7 N    3.609 --    10 C    1.263    11 C    1.197     7 C    0.924
    10   6 C    3.380 --     9 N    1.263    21 H    0.963    19 H    0.959
    11   6 C    3.648 --     9 N    1.197    13 N    1.150    12 O    1.114
    12   8 O    2.110 --    11 C    1.114    20 H    0.838
    13   7 N    3.499 --     5 C    1.157    11 C    1.150    14 C    0.977
    14   6 C    3.926 --    13 N    0.977    23 H    0.969    22 H    0.968
                            24 H    0.967
    15   1 H    0.981 --     1 C    0.961
    16   1 H    0.982 --     1 C    0.962
    17   1 H    0.982 --     1 C    0.961
    18   1 H    0.987 --     3 C    0.958
    19   1 H    0.983 --    10 C    0.959
    20   1 H    0.874 --    12 O    0.838
    21   1 H    0.993 --    10 C    0.963
    22   1 H    0.985 --    14 C    0.968
    23   1 H    0.986 --    14 C    0.969
    24   1 H    0.984 --    14 C    0.967
    25   1 H    0.953 --     4 N    0.926
 ---------------------------------------------------------------------------

molecular dipole:
                 x           y           z       tot (Debye)
 q only:        0.489      -2.067      -0.179
   full:        0.378      -2.380      -0.209       6.147

           -------------------------------------------------
          | TOTAL ENERGY              -42.197875995613 Eh   |
          | GRADIENT NORM               0.007960887599 Eh/α |
          | HOMO-LUMO GAP               1.344446917767 eV   |
           -------------------------------------------------

 * finished run on 2024/06/05 at 19:58:48.743
