   * xtb version 6.6.1 (8d0f1dd) compiled by 'conda@1efc2f54142f' on 2023-08-01
          program call               : xtb struc.xyz --opt loose --input .xc1 --gfn2

   ID    Z sym.   atoms
    1    6 C      1, 3, 5-7, 10, 11, 14
    2    7 N      2, 4, 9, 13
    3    8 O      8, 12
    4    1 H      15-25
constraining bond 5 14 to    5.0000000 Å, actual value:    2.4460888 Å

          :  Hamiltonian                  GFN2-xTB          :
 * total energy  :   -18.9557263 Eh     change       -0.6650680E-10 Eh
 * total energy  :   -28.7133176 Eh     change       -0.9757591E+01 Eh
 * total energy  :   -35.0352205 Eh     change       -0.6321903E+01 Eh
 * total energy  :   -39.0123193 Eh     change       -0.3977099E+01 Eh
 * total energy  :   -40.9013776 Eh     change       -0.1889058E+01 Eh
 * total energy  :   -41.2700803 Eh     change       -0.3687027E+00 Eh
 * total energy  :   -41.3320112 Eh     change       -0.6193092E-01 Eh
 * total energy  :   -41.3828760 Eh     change       -0.5086479E-01 Eh
 * total energy  :   -41.4179710 Eh     change       -0.3509499E-01 Eh
 * total energy  :   -41.4587213 Eh     change       -0.4075030E-01 Eh
 * total energy  :   -42.1858273 Eh     change       -0.1522620E-01 Eh
 * total energy  :   -42.1895325 Eh     change       -0.3705264E-02 Eh
 * total energy  :   -42.1902654 Eh     change       -0.7329296E-03 Eh
 * total energy  :   -42.1923299 Eh     change       -0.2064465E-02 Eh
 * total energy  :   -42.1928744 Eh     change       -0.5445292E-03 Eh
 * total energy  :   -42.1945347 Eh     change       -0.1660279E-02 Eh
 * total energy  :   -42.1949064 Eh     change       -0.3716955E-03 Eh
 * total energy  :   -42.1950590 Eh     change       -0.1525709E-03 Eh
 * total energy  :   -42.1951047 Eh     change       -0.4572534E-04 Eh
   *** GEOMETRY OPTIMIZATION CONVERGED AFTER 71 ITERATIONS ***

 final structure:
================
25
 xtb: 6.6.1 (8d0f1dd)
C            3.34049534762408        1.80300480979987        0.02536965776253
N            2.73020367308610        0.50131574154399        0.10604842901885
C            3.35451016385335       -0.66692956644587        0.22792783911682
N            2.46075744316278       -1.67584552292850        0.25403488585414
C            1.22776353231522       -1.12332818393657        0.14453980362280
C            1.38361157514791        0.24717736929439        0.05156803540895
C            0.22653677698773        1.10920338246142       -0.05642572748423
O            0.25990324429640        2.31676147754822       -0.12660429217303
N           -0.98357645771207        0.38882992635228       -0.07078249238344
C           -2.18561543365470        1.20521895451546       -0.15512377501468
C           -1.11217428728020       -1.00037135509339       -0.00118480817991
O           -2.41387229745303       -1.28221972816176       -0.02841272803364
N           -0.01117026821220       -1.73983489495375        0.10721870954675
C           -3.62360116569809       -2.24090137934134       -0.12534250286261
H            3.93136752741317        2.00262442090642        0.91924133483819
H            3.99179520598955        1.86234138292670       -0.84721782371464
H            2.55120343404436        2.54939219589068       -0.06146866655484
H            4.41802621785474       -0.78990669336077        0.29585552173990
H           -1.87435783024147        2.24567720833401       -0.22494205800637
H           -2.76534985173903        0.93243866190222       -1.03511343787516
H           -2.79692164434342        1.06290132839999        0.73489481777452
H           -3.47153114666786       -3.09044823303606        0.53189384655668
H           -3.70338077675237       -2.54047964174316       -1.16672529753580
H           -4.43279291309761       -1.59542004329992        0.19098157514773
H            2.65860144516424       -2.66296307597817        0.34094077133568

          :  Hamiltonian                  GFN2-xTB          :
         :: total energy             -42.195104715026 Eh    ::
         :: gradient norm              0.002361311511 Eh/a0 ::
         :: HOMO-LUMO gap              3.230321524757 eV    ::
         :: SCC energy               -42.695163597660 Eh    ::
         :: -> dispersion             -0.021502592370 Eh    ::
         :: repulsion energy           0.499317750751 Eh    ::

    * Orbital Energies and Occupations

         #    Occupation            Energy/Eh            Energy/eV
      -------------------------------------------------------------
         1        2.0000           -0.8951765             -24.3590
       ...           ...                  ...                  ...
        25        2.0000           -0.6582957             -17.9131
        26        2.0000           -0.6475310             -17.6202
        27        1.9999           -0.6409020             -17.4398
        28        1.9999           -0.6283318             -17.0978
        29        1.9999           -0.6255852             -17.0230
        30        1.9995           -0.6078414             -16.5402
        31        1.9993           -0.6014277             -16.3657
        32        1.9992           -0.5996478             -16.3172
        33        1.9983           -0.5866392             -15.9633
        34        1.9915           -0.5615496             -15.2805
        35        1.9865           -0.5541364             -15.0788
        36        1.9732           -0.5432201             -14.7818
        37        1.9687           -0.5406954             -14.7131 (HOMO)
        38        0.0674           -0.4219833             -11.4827 (LUMO)
        39        0.0147           -0.3974105             -10.8141
        40        0.0021           -0.3667864              -9.9808
        41        0.0000           -0.3038305              -8.2676
        42        0.0000           -0.2735947              -7.4449
        43                         -0.1808538              -4.9213
        44                         -0.1652483              -4.4966
        45                         -0.1390995              -3.7851
        46                         -0.0718241              -1.9544
        47                         -0.0453474              -1.2340
        48                         -0.0186550              -0.5076
       ...                                ...                  ...
        67                          0.5320662              14.4783
      -------------------------------------------------------------
                  HL-Gap            0.1187121 Eh            3.2303 eV

     #   Z          covCN         q      C6AA      α(0)
     1   6 C        3.691    -0.092    22.451     6.780
     2   7 N        2.837     0.081    19.835     6.615
     3   6 C        3.090     0.056    26.643     8.461
     4   7 N        2.790    -0.041    22.040     6.973
     5   6 C        3.077     0.137    24.926     8.185
     6   6 C        3.121    -0.019    28.307     8.713
     7   6 C        2.769     0.273    22.382     7.748
     8   8 O        0.858    -0.378    21.251     6.181
     9   7 N        2.747    -0.073    22.648     7.068
    10   6 C        3.702    -0.066    21.931     6.696
    11   6 C        2.717     0.313    21.676     7.621
    12   8 O        1.678    -0.256    18.258     5.769
    13   7 N        1.830    -0.289    28.334     7.888
    14   6 C        3.592     0.014    20.968     6.633
    15   1 H        0.925     0.104     1.746     2.066
    16   1 H        0.924     0.104     1.747     2.067
    17   1 H        0.925     0.133     1.509     1.921
    18   1 H        0.926     0.123     1.590     1.972
    19   1 H        0.925     0.117     1.635     2.000
    20   1 H        0.925     0.090     1.883     2.146
    21   1 H        0.925     0.089     1.888     2.149
    22   1 H        0.925     0.107     1.720     2.051
    23   1 H        0.925     0.111     1.686     2.031
    24   1 H        0.925     0.123     1.587     1.970
    25   1 H        0.860     0.237     0.934     1.514

Wiberg/Mayer (AO) data.
largest (>0.10) Wiberg bond orders for each atom

     #   Z sym  total        # sym  WBO       # sym  WBO       # sym  WBO
 ---------------------------------------------------------------------------
     1   6 C    3.919 --     2 N    0.984    17 H    0.963    15 H    0.961
                            16 H    0.960
     2   7 N    3.692 --     3 C    1.390     6 C    1.169     1 C    0.984
     3   6 C    3.876 --     2 N    1.390     4 N    1.300    18 H    0.953
     4   7 N    3.613 --     3 C    1.300     5 C    1.199    25 H    0.916
     5   6 C    3.952 --     6 C    1.352    13 N    1.220     4 N    1.199
     6   6 C    3.921 --     5 C    1.352     2 N    1.169     7 C    1.084
     7   6 C    3.949 --     8 O    1.677     9 N    1.092     6 C    1.084
     8   8 O    2.030 --     7 C    1.677     9 N    0.150
     9   7 N    3.574 --    11 C    1.149     7 C    1.092    10 C    0.978
                             8 O    0.150
    10   6 C    3.923 --     9 N    0.978    20 H    0.966    21 H    0.965
                            19 H    0.963
    11   6 C    3.926 --    13 N    1.409    12 O    1.214     9 N    1.149
    12   8 O    2.318 --    11 C    1.214    14 C    0.855    13 N    0.112
    13   7 N    2.979 --    11 C    1.409     5 C    1.220    12 O    0.112
    14   6 C    3.833 --    22 H    0.978    23 H    0.973    24 H    0.972
                            12 O    0.855
    15   1 H    0.987 --     1 C    0.961
    16   1 H    0.987 --     1 C    0.960
    17   1 H    0.982 --     1 C    0.963
    18   1 H    0.984 --     3 C    0.953
    19   1 H    0.985 --    10 C    0.963
    20   1 H    0.988 --    10 C    0.966
    21   1 H    0.988 --    10 C    0.965
    22   1 H    0.987 --    14 C    0.978
    23   1 H    0.985 --    14 C    0.973
    24   1 H    0.984 --    14 C    0.972
    25   1 H    0.943 --     4 N    0.916
 ---------------------------------------------------------------------------

molecular dipole:
                 x           y           z       tot (Debye)
 q only:        1.582      -1.515       0.120
   full:        1.857      -1.832       0.145       6.641

           -------------------------------------------------
          | TOTAL ENERGY              -42.195104715026 Eh   |
          | GRADIENT NORM               0.002361311511 Eh/α |
          | HOMO-LUMO GAP               3.230321524757 eV   |
           -------------------------------------------------

 * finished run on 2024/06/05 at 19:59:13.169
