   * xtb version 6.6.1 (8d0f1dd) compiled by 'conda@1efc2f54142f' on 2023-08-01
          program call               : xtb xtbopt.xyz --opt crude --input .xc2 --gfn2

   ID    Z sym.   atoms
    1    6 C      1, 3, 5-7, 10, 11, 14
    2    7 N      2, 4, 9, 13
    3    8 O      8, 12
    4    1 H      15-25
########################################################################
[WARNING] Please study the warnings concerning your input carefully
-1- readin_getIntValue: could not parse ''
########################################################################

          :  Hamiltonian                  GFN2-xTB          :
 * total energy  :   -42.1958314 Eh     change       -0.1421085E-12 Eh
 * total energy  :   -42.2107238 Eh     change       -0.1489239E-01 Eh
 * total energy  :   -42.2214808 Eh     change       -0.1075703E-01 Eh
 * total energy  :   -42.2277336 Eh     change       -0.6252748E-02 Eh
 * total energy  :   -42.2337703 Eh     change       -0.6036741E-02 Eh
 * total energy  :   -42.2384430 Eh     change       -0.4672678E-02 Eh
 * total energy  :   -42.2416233 Eh     change       -0.3180283E-02 Eh
 * total energy  :   -42.2432276 Eh     change       -0.1604287E-02 Eh
 * total energy  :   -42.2436506 Eh     change       -0.4230072E-03 Eh
 * total energy  :   -42.2440953 Eh     change       -0.4447183E-03 Eh
 * total energy  :   -42.2441604 Eh     change       -0.6507057E-04 Eh
 * total energy  :   -42.2442792 Eh     change       -0.1188429E-03 Eh
   *** GEOMETRY OPTIMIZATION CONVERGED AFTER 12 ITERATIONS ***

 final structure:
================
25
 xtb: 6.6.1 (8d0f1dd)
C            3.30577606906321        1.60830601157440        0.06038364494985
N            2.56439098121917        0.37426987097005        0.09889977557597
C            3.05457791027342       -0.85480709258150        0.19500371433462
N            2.05334533315947       -1.75584487766264        0.19514364490120
C            0.87455278014297       -1.07813745157359        0.09547082910470
C            1.19765706173963        0.27409810478161        0.03561942622183
C            0.16470915860699        1.27663571369802       -0.06758996330226
O            0.31556989558526        2.47272533446913       -0.12932962024634
N           -1.10857363491275        0.67320590982955       -0.08858500885160
C           -2.26281529822642        1.55014301732390       -0.18418040195822
C           -1.31375476481662       -0.67386715615293       -0.03154222846799
O           -2.57116910270458       -1.02598150483512       -0.06404202563911
N           -0.36190832409386       -1.57540168558648        0.05717637343454
C           -2.88861291013847       -2.41598976252784       -0.04702614688601
H            3.90413915613059        1.72125126989469        0.96461052710797
H            3.96945281182384        1.62557662415606       -0.80436212270615
H            2.59847418304110        2.43438576085246       -0.01143871845493
H            4.09662565126236       -1.10036196966452        0.26367183280750
H           -1.89598853550681        2.57350453993278       -0.23864744855255
H           -2.83992285178081        1.31230855029015       -1.07653965384187
H           -2.89841736770477        1.42824210299605        0.69168089029646
H           -2.27972609891223       -2.94550979684207        0.68679375819849
H           -2.72216723991859       -2.84827680974234       -1.03650188246129
H           -3.94427543949269       -2.47249117832616        0.20832917567980
H            2.14849209024821       -2.75974498367711        0.25817324666045

          :  Hamiltonian                  GFN2-xTB          :
         :: total energy             -42.244279224771 Eh    ::
         :: gradient norm              0.002679138168 Eh/a0 ::
         :: HOMO-LUMO gap              3.319002383866 eV    ::
         :: SCC energy               -42.764329436457 Eh    ::
         :: -> dispersion             -0.022021628353 Eh    ::
         :: repulsion energy           0.519993139350 Eh    ::

    * Orbital Energies and Occupations

         #    Occupation            Energy/Eh            Energy/eV
      -------------------------------------------------------------
         1        2.0000           -0.8999323             -24.4884
       ...           ...                  ...                  ...
        25        2.0000           -0.6658106             -18.1176
        26        2.0000           -0.6542622             -17.8034
        27        1.9999           -0.6477249             -17.6255
        28        1.9999           -0.6373617             -17.3435
        29        1.9998           -0.6300503             -17.1445
        30        1.9994           -0.6114502             -16.6384
        31        1.9994           -0.6100854             -16.6013
        32        1.9989           -0.6007396             -16.3470
        33        1.9987           -0.5985561             -16.2875
        34        1.9913           -0.5680668             -15.4579
        35        1.9891           -0.5644675             -15.3599
        36        1.9830           -0.5573690             -15.1668
        37        1.9697           -0.5481475             -14.9159 (HOMO)
        38        0.0570           -0.4261764             -11.5969 (LUMO)
        39        0.0124           -0.4016471             -10.9294
        40        0.0016           -0.3693342             -10.0501
        41        0.0000           -0.2746099              -7.4725
        42                         -0.1875673              -5.1040
        43                         -0.1735567              -4.7227
        44                         -0.1348952              -3.6707
        45                         -0.1121159              -3.0508
        46                         -0.0642192              -1.7475
        47                         -0.0338250              -0.9204
        48                         -0.0199032              -0.5416
       ...                                ...                  ...
        67                          0.5419449              14.7471
      -------------------------------------------------------------
                  HL-Gap            0.1219711 Eh            3.3190 eV

     #   Z          covCN         q      C6AA      α(0)
     1   6 C        3.691    -0.093    22.468     6.783
     2   7 N        2.831     0.082    19.814     6.611
     3   6 C        3.069     0.058    26.622     8.460
     4   7 N        2.797    -0.052    22.247     7.005
     5   6 C        3.123     0.143    24.721     8.142
     6   6 C        3.131    -0.028    28.491     8.739
     7   6 C        2.768     0.273    22.387     7.749
     8   8 O        0.858    -0.371    21.117     6.161
     9   7 N        2.748    -0.070    22.588     7.059
    10   6 C        3.702    -0.067    21.947     6.698
    11   6 C        2.838     0.303    21.863     7.663
    12   8 O        1.708    -0.188    17.147     5.591
    13   7 N        1.831    -0.295    28.493     7.910
    14   6 C        3.654     0.004    20.820     6.552
    15   1 H        0.925     0.105     1.737     2.061
    16   1 H        0.924     0.106     1.735     2.060
    17   1 H        0.925     0.134     1.505     1.919
    18   1 H        0.926     0.124     1.581     1.966
    19   1 H        0.925     0.119     1.622     1.992
    20   1 H        0.925     0.094     1.838     2.120
    21   1 H        0.925     0.094     1.838     2.120
    22   1 H        0.924     0.090     1.880     2.144
    23   1 H        0.924     0.090     1.881     2.145
    24   1 H        0.925     0.108     1.713     2.047
    25   1 H        0.860     0.237     0.937     1.516

Wiberg/Mayer (AO) data.
largest (>0.10) Wiberg bond orders for each atom

     #   Z sym  total        # sym  WBO       # sym  WBO       # sym  WBO
 ---------------------------------------------------------------------------
     1   6 C    3.917 --     2 N    0.984    17 H    0.963    15 H    0.961
                            16 H    0.960
     2   7 N    3.698 --     3 C    1.398     6 C    1.166     1 C    0.984
     3   6 C    3.885 --     2 N    1.398     4 N    1.302    18 H    0.952
     4   7 N    3.609 --     3 C    1.302     5 C    1.183    25 H    0.917
     5   6 C    3.955 --     6 C    1.327    13 N    1.266     4 N    1.183
     6   6 C    3.920 --     5 C    1.327     2 N    1.166     7 C    1.093
     7   6 C    3.949 --     8 O    1.689     6 C    1.093     9 N    1.070
     8   8 O    2.042 --     7 C    1.689     9 N    0.145
     9   7 N    3.585 --    11 C    1.201     7 C    1.070    10 C    0.973
                             8 O    0.145
    10   6 C    3.919 --     9 N    0.973    19 H    0.966    20 H    0.965
                            21 H    0.965
    11   6 C    3.940 --    13 N    1.381    12 O    1.208     9 N    1.201
    12   8 O    2.365 --    11 C    1.208    14 C    0.933
    13   7 N    2.994 --    11 C    1.381     5 C    1.266
    14   6 C    3.882 --    24 H    0.973    22 H    0.973    23 H    0.969
                            12 O    0.933
    15   1 H    0.987 --     1 C    0.961
    16   1 H    0.987 --     1 C    0.960
    17   1 H    0.982 --     1 C    0.963
    18   1 H    0.984 --     3 C    0.952
    19   1 H    0.985 --    10 C    0.966
    20   1 H    0.988 --    10 C    0.965
    21   1 H    0.988 --    10 C    0.965
    22   1 H    0.990 --    14 C    0.973
    23   1 H    0.989 --    14 C    0.969
    24   1 H    0.987 --    14 C    0.973
    25   1 H    0.943 --     4 N    0.917
 ---------------------------------------------------------------------------

molecular dipole:
                 x           y           z       tot (Debye)
 q only:        1.807      -1.605       0.161
   full:        2.103      -1.821       0.183       7.085

           -------------------------------------------------
          | TOTAL ENERGY              -42.244279224771 Eh   |
          | GRADIENT NORM               0.002679138168 Eh/α |
          | HOMO-LUMO GAP               3.319002383866 eV   |
           -------------------------------------------------

 * finished run on 2024/06/05 at 19:59:13.650
