   * xtb version 6.6.1 (8d0f1dd) compiled by 'conda@1efc2f54142f' on 2023-08-01
          program call               : xtb struc.xyz --opt loose --input .xc1 --gfn2

   ID    Z sym.   atoms
    1    7 N      1, 17
    2    6 C      2-6, 8, 9, 11-16, 18-23, 25, 26, 28-33
    3    8 O      7, 10, 24, 27
    4    1 H      34-72
constraining bond 5 41 to    4.7133300 Å, actual value:    3.8431400 Å

          :  Hamiltonian                  GFN2-xTB          :
 * total energy  :   -99.5393369 Eh     change       -0.4035485E-08 Eh
 * total energy  :   -99.6831027 Eh     change       -0.1437658E+00 Eh
 * total energy  :   -99.8022236 Eh     change       -0.1191209E+00 Eh
 * total energy  :   -99.9008345 Eh     change       -0.9861097E-01 Eh
 * total energy  :  -100.0577727 Eh     change       -0.1569381E+00 Eh
 * total energy  :  -100.1749247 Eh     change       -0.1171521E+00 Eh
 * total energy  :  -100.4171461 Eh     change       -0.2422213E+00 Eh
 * total energy  :  -100.8723522 Eh     change       -0.4552061E+00 Eh
 * total energy  :  -101.3953544 Eh     change       -0.5230022E+00 Eh
 * total energy  :   -98.9022816 Eh     change        0.2493073E+01 Eh
 * total energy  :  -101.9245318 Eh     change       -0.7800073E-04 Eh
 * total energy  :  -101.9246456 Eh     change       -0.1137894E-03 Eh
 * total energy  :  -101.9247349 Eh     change       -0.8932276E-04 Eh
 * total energy  :  -101.9248198 Eh     change       -0.8489026E-04 Eh
 * total energy  :  -101.9249119 Eh     change       -0.9209302E-04 Eh
 * total energy  :  -101.9249638 Eh     change       -0.5187850E-04 Eh
 * total energy  :  -101.9250205 Eh     change       -0.5672656E-04 Eh
 * total energy  :  -101.9250759 Eh     change       -0.5542210E-04 Eh
 * total energy  :  -101.9251251 Eh     change       -0.4919764E-04 Eh
   *** GEOMETRY OPTIMIZATION CONVERGED AFTER 52 ITERATIONS ***

 final structure:
================
72
 xtb: 6.6.1 (8d0f1dd)
N           -1.68251873898656        3.09960739302315        2.01992282711279
C           -1.81504097524663        2.09312953813008        1.29099671052972
C           -3.02781882871751        1.82996577975284        0.44211732991745
C           -3.53182149367049        0.45761173328826        0.77411875977070
C           -4.84728904392256       -0.22860367753620        0.36232751527688
C           -4.95541529936080       -1.26434912352670       -0.85378205148394
O           -6.23601097328513       -1.46080200445894       -1.34147045267614
C           -6.67927633568483       -0.45656756036573       -2.22303401480757
C           -4.40165318800125       -2.30487051282332        0.09256924853469
O           -4.13900864024601       -3.58330330263685       -0.12668738765788
C           -3.48248402251229       -4.26543578287076        0.92667420470646
C           -4.23510082551545       -1.41741030940929        1.12813150612240
C           -3.12840163349983       -0.56636988746410        1.56632326585077
C           -2.59644194502294        1.85867676912420       -1.04900118003712
C           -1.66716400801374        0.70933699161959       -1.46350261338303
C           -0.29071828523347        0.84950415944853       -0.94077937729832
N            0.48736955546209       -0.16334237055057       -0.57472589887901
C            1.87037012765974        0.05411034229314       -0.22277913662228
C            2.82643110950005       -0.33536624177598       -1.36685278224092
C            4.24897114017895       -0.12739075501344       -0.92778854613294
C            4.89129970929594        1.07948977805985       -1.14885509011749
C            6.19069923089380        1.28260959864296       -0.70973681692562
C            6.87255674549760        0.28134366390932       -0.03323579542328
O            8.12891297754826        0.36676523148648        0.44021129879698
C            8.86103102683741        1.55420837393532        0.24062022931372
C            6.22073514272044       -0.96176901362969        0.19889963250857
O            6.95629672431005       -1.87952302843996        0.85726530260223
C            6.40767548744579       -3.15027843717284        1.11198282450077
C            4.92177572666506       -1.14098706987763       -0.24861387712607
C            0.01252963900455       -1.52612327437641       -0.58493291804929
C           -4.19455606613280        2.83652586669062        0.66346785813189
C           -4.68121795932974        2.81100246805274        2.11098671325460
C           -3.84113415143757        4.26749515027723        0.26877900144129
H           -4.23827996477937       -1.06587098743981       -1.66828663084798
H           -6.71273077811184        0.52211338741754       -1.73152845505240
H           -7.68316131953246       -0.74175376304882       -2.52870397387190
H           -6.03268567970380       -0.39128751759558       -3.10632539162073
H           -3.90986217151703       -3.98172413470541        1.89190928458819
H           -3.62815069688399       -5.32780097085907        0.74823875423200
H           -2.41273299289794       -4.03321940735342        0.92828834802975
H           -5.49310242498711        0.08182181012338        0.55729966859508
H           -2.28807692554745       -0.75160233370397        2.20992874707734
H           -3.50143158570006        1.80113806683583       -1.65542759836814
H           -2.10744084449246        2.80958354461715       -1.25755887916710
H           -2.10664186758177       -0.24210517514031       -1.16432393512993
H           -1.61523077412522        0.71531954046071       -2.56069526883733
H           -1.04990083733034        1.30487902961247        1.18543949946156
H            0.15642874240129        1.83135634504027       -0.94721571016531
H            2.11013511692420       -0.53837400284546        0.66475329771662
H            2.01940540065678        1.10785270150145        0.01984728188729
H            2.60711805043731        0.28403099225466       -2.23776435945690
H            2.66756260195995       -1.38018923264886       -1.63717973248823
H            4.38518053476639        1.87230268012145       -1.67827976559120
H            6.66709665235499        2.22954229267314       -0.90331934734260
H            8.38023438817247        2.40789213731021        0.72787583293263
H            8.99475526827230        1.76783318274874       -0.82397084224210
H            9.83249329219292        1.37780025988158        0.69830933188256
H            7.18723053434964       -3.70659358906881        1.62873886857233
H            5.52449626340169       -3.08466219481428        1.75578766511837
H            6.14791705023177       -3.66917957042692        0.18401574789215
H            4.42199322353314       -2.08301633113364       -0.08435169491676
H           -0.23000628490818       -1.85350175549691       -1.59828029180014
H           -0.88286131026830       -1.62223201877453        0.03408377370120
H            0.78276008074587       -2.17915717479411       -0.18307150434494
H           -5.01523493208504        2.49816156152785        0.01910833343115
H           -3.90981142011604        3.19746762688252        2.76956749995995
H           -4.93893668073976        1.80414031042467        2.42884633490903
H           -5.56322742360967        3.43709568112373        2.20963911189201
H           -2.97998156072722        4.60940166073503        0.83392037515961
H           -3.63636429148579        4.35918770135207       -0.79424267957773
H           -4.68205491222218        4.91583126408481        0.50093980417279
H           -0.82396585324015        3.18276741981064        2.55563705270354

          :  Hamiltonian                  GFN2-xTB          :
         :: total energy            -101.925125132244 Eh    ::
         :: gradient norm              0.003689534105 Eh/a0 ::
         :: HOMO-LUMO gap              1.544488493582 eV    ::
         :: SCC energy              -100.632409679092 Eh    ::
         :: -> dispersion             -0.073103517858 Eh    ::
         :: repulsion energy           1.521175948540 Eh    ::

    * Orbital Energies and Occupations

         #    Occupation            Energy/Eh            Energy/eV
      -------------------------------------------------------------
         1        2.0000           -0.8306994             -22.6045
       ...           ...                  ...                  ...
        78        1.9984           -0.5308403             -14.4449
        79        1.9983           -0.5301717             -14.4267
        80        1.9982           -0.5288727             -14.3914
        81        1.9970           -0.5212685             -14.1844
        82        1.9969           -0.5203749             -14.1601
        83        1.9963           -0.5178065             -14.0902
        84        1.9956           -0.5149071             -14.0113
        85        1.9921           -0.5057487             -13.7621
        86        1.9785           -0.4897270             -13.3262
        87        1.9688           -0.4837509             -13.1635
        88        1.9404           -0.4732452             -12.8777
        89        1.8444           -0.4572463             -12.4423
        90        1.8177           -0.4545105             -12.3679 (HOMO)
        91        0.4334           -0.3977516             -10.8234 (LUMO)
        92        0.0304           -0.3520479              -9.5797
        93        0.0149           -0.3406472              -9.2695
        94        0.0028           -0.3138678              -8.5408
        95        0.0023           -0.3112324              -8.4691
        96        0.0015           -0.3041947              -8.2776
        97        0.0000           -0.1889342              -5.1412
        98        0.0000           -0.1550180              -4.2183
        99                         -0.1400767              -3.8117
       100                         -0.1103590              -3.0030
       101                         -0.0729744              -1.9857
       ...                                ...                  ...
       171                          1.4701029              40.0035
      -------------------------------------------------------------
                  HL-Gap            0.0567589 Eh            1.5445 eV

     #   Z          covCN         q      C6AA      α(0)
     1   7 N        1.774    -0.270    27.820     7.811
     2   6 C        2.828     0.099    25.797     8.323
     3   6 C        3.905     0.012    20.320     6.407
     4   6 C        3.375    -0.008    24.870     7.784
     5   6 C        4.313    -0.077    21.876     6.643
     6   6 C        4.015     0.118    18.593     6.125
     7   8 O        1.702    -0.279    18.633     5.828
     8   6 C        3.655     0.033    20.310     6.470
     9   6 C        3.079     0.130    25.078     8.210
    10   8 O        1.704    -0.205    17.409     5.633
    11   6 C        3.666     0.021    20.483     6.490
    12   6 C        3.621    -0.063    22.200     6.793
    13   6 C        3.134    -0.042    28.821     8.788
    14   6 C        3.811    -0.066    21.749     6.638
    15   6 C        3.802    -0.066    21.764     6.642
    16   6 C        2.843     0.003    27.958     8.666
    17   7 N        2.729     0.010    21.077     6.819
    18   6 C        3.755    -0.017    20.927     6.523
    19   6 C        3.808    -0.071    21.847     6.654
    20   6 C        2.970    -0.001    28.038     8.685
    21   6 C        2.922    -0.048    29.202     8.862
    22   6 C        2.914    -0.067    29.675     8.933
    23   6 C        2.865     0.134    25.074     8.208
    24   8 O        1.706    -0.221    17.672     5.676
    25   6 C        3.645     0.025    20.494     6.506
    26   6 C        2.863     0.133    25.090     8.210
    27   8 O        1.706    -0.225    17.725     5.684
    28   6 C        3.645     0.027    20.450     6.500
    29   6 C        2.920    -0.080    30.002     8.982
    30   6 C        3.700    -0.066    21.939     6.698
    31   6 C        3.855    -0.007    20.665     6.465
    32   6 C        3.756    -0.118    22.811     6.810
    33   6 C        3.755    -0.121    22.877     6.820
    34   1 H        0.923     0.027     2.635     2.538
    35   1 H        0.924     0.041     2.439     2.442
    36   1 H        0.925     0.080     1.974     2.197
    37   1 H        0.924     0.037     2.485     2.465
    38   1 H        0.924     0.069     2.097     2.264
    39   1 H        0.925     0.089     1.891     2.150
    40   1 H        0.924     0.053     2.284     2.363
    41   1 H        0.930     0.104     1.747     2.067
    42   1 H        0.926     0.034     2.537     2.491
    43   1 H        0.924     0.061     2.192     2.315
    44   1 H        0.925     0.060     2.197     2.318
    45   1 H        0.925     0.059     2.216     2.328
    46   1 H        0.923     0.079     1.989     2.206
    47   1 H        0.923     0.003     3.010     2.713
    48   1 H        0.926     0.071     2.074     2.252
    49   1 H        0.924     0.068     2.112     2.273
    50   1 H        0.924     0.069     2.102     2.267
    51   1 H        0.924     0.056     2.248     2.345
    52   1 H        0.924     0.055     2.254     2.348
    53   1 H        0.926     0.046     2.364     2.405
    54   1 H        0.926     0.059     2.208     2.324
    55   1 H        0.924     0.055     2.264     2.353
    56   1 H        0.924     0.056     2.242     2.341
    57   1 H        0.925     0.083     1.951     2.184
    58   1 H        0.925     0.082     1.957     2.188
    59   1 H        0.924     0.048     2.348     2.396
    60   1 H        0.924     0.052     2.292     2.367
    61   1 H        0.926     0.045     2.377     2.411
    62   1 H        0.924     0.076     2.018     2.222
    63   1 H        0.924     0.072     2.067     2.248
    64   1 H        0.925     0.081     1.969     2.195
    65   1 H        0.924     0.036     2.502     2.473
    66   1 H        0.925     0.065     2.142     2.289
    67   1 H        0.925     0.037     2.490     2.467
    68   1 H        0.925     0.052     2.298     2.371
    69   1 H        0.925     0.067     2.121     2.278
    70   1 H        0.925     0.035     2.510     2.478
    71   1 H        0.925     0.056     2.249     2.345
    72   1 H        0.860     0.157     1.355     1.823

Wiberg/Mayer (AO) data.
largest (>0.10) Wiberg bond orders for each atom

     #   Z sym  total        # sym  WBO       # sym  WBO       # sym  WBO
 ---------------------------------------------------------------------------
     1   7 N    3.026 --     2 C    1.955    72 H    0.942
     2   6 C    3.934 --     1 N    1.955     3 C    0.991    47 H    0.916
     3   6 C    3.972 --     2 C    0.991     4 C    0.982    14 C    0.943
                            31 C    0.941
     4   6 C    3.893 --    13 C    1.728     3 C    0.982     5 C    0.974
     5   6 C    3.938 --     4 C    0.974    41 H    0.969    12 C    0.957
                             6 C    0.903
     6   6 C    3.945 --     7 O    1.010     9 C    0.979    34 H    0.934
                             5 C    0.903
     7   8 O    2.115 --     6 C    1.010     8 C    0.981
     8   6 C    3.935 --     7 O    0.981    36 H    0.976    35 H    0.976
                            37 H    0.975
     9   6 C    3.832 --    12 C    1.506    10 O    1.158     6 C    0.979
    10   8 O    2.309 --     9 C    1.158    11 C    0.959    12 C    0.116
    11   6 C    3.920 --    39 H    0.977    38 H    0.974    40 H    0.974
                            10 O    0.959
    12   6 C    3.771 --     9 C    1.506    13 C    1.081     5 C    0.957
                            10 O    0.116
    13   6 C    3.944 --     4 C    1.728    12 C    1.081    42 H    0.966
    14   6 C    3.974 --    15 C    0.989    44 H    0.971    43 H    0.970
                             3 C    0.943
    15   6 C    3.989 --    16 C    1.060    14 C    0.989    45 H    0.956
                            46 H    0.926
    16   6 C    3.562 --    17 N    1.397    15 C    1.060    48 H    0.958
    17   7 N    3.466 --    16 C    1.397    30 C    0.999    18 C    0.988
    18   6 C    3.955 --    17 N    0.988    50 H    0.968    19 C    0.967
                            49 H    0.963
    19   6 C    3.976 --    20 C    1.007    51 H    0.973    52 H    0.971
                            18 C    0.967
    20   6 C    3.944 --    21 C    1.411    29 C    1.378    19 C    1.007
    21   6 C    3.950 --    22 C    1.416    20 C    1.411    53 H    0.968
    22   6 C    3.959 --    21 C    1.416    23 C    1.384    54 H    0.963
    23   6 C    3.895 --    22 C    1.384    26 C    1.218    24 O    1.111
    24   8 O    2.256 --    23 C    1.111    25 C    0.976
    25   6 C    3.928 --    57 H    0.977    24 O    0.976    55 H    0.973
                            56 H    0.972
    26   6 C    3.899 --    29 C    1.397    23 C    1.218    27 O    1.103
    27   8 O    2.255 --    26 C    1.103    28 C    0.979
    28   6 C    3.932 --    27 O    0.979    58 H    0.977    59 H    0.973
                            60 H    0.973
    29   6 C    3.959 --    26 C    1.397    20 C    1.378    61 H    0.963
    30   6 C    3.960 --    17 N    0.999    64 H    0.978    62 H    0.968
                            63 H    0.964
    31   6 C    3.974 --    32 C    1.008    33 C    1.008    65 H    0.962
                             3 C    0.941
    32   6 C    3.981 --    31 C    1.008    68 H    0.982    67 H    0.982
                            66 H    0.976
    33   6 C    3.980 --    31 C    1.008    70 H    0.983    71 H    0.979
                            69 H    0.975
    34   1 H    0.995 --     6 C    0.934
    35   1 H    0.995 --     8 C    0.976
    36   1 H    0.992 --     8 C    0.976
    37   1 H    0.996 --     8 C    0.975
    38   1 H    0.993 --    11 C    0.974
    39   1 H    0.991 --    11 C    0.977
    40   1 H    0.993 --    11 C    0.974
    41   1 H    0.989 --     5 C    0.969
    42   1 H    0.997 --    13 C    0.966
    43   1 H    0.995 --    14 C    0.970
    44   1 H    0.995 --    14 C    0.971
    45   1 H    0.994 --    15 C    0.956
    46   1 H    0.967 --    15 C    0.926
    47   1 H    0.987 --     2 C    0.916
    48   1 H    0.995 --    16 C    0.958
    49   1 H    0.990 --    18 C    0.963
    50   1 H    0.994 --    18 C    0.968
    51   1 H    0.996 --    19 C    0.973
    52   1 H    0.996 --    19 C    0.971
    53   1 H    0.997 --    21 C    0.968
    54   1 H    0.995 --    22 C    0.963
    55   1 H    0.992 --    25 C    0.973
    56   1 H    0.991 --    25 C    0.972
    57   1 H    0.992 --    25 C    0.977
    58   1 H    0.993 --    28 C    0.977
    59   1 H    0.993 --    28 C    0.973
    60   1 H    0.993 --    28 C    0.973
    61   1 H    0.997 --    29 C    0.963
    62   1 H    0.985 --    30 C    0.968
    63   1 H    0.987 --    30 C    0.964
    64   1 H    0.993 --    30 C    0.978
    65   1 H    0.993 --    31 C    0.962
    66   1 H    0.992 --    32 C    0.976
    67   1 H    0.997 --    32 C    0.982
    68   1 H    0.995 --    32 C    0.982
    69   1 H    0.992 --    33 C    0.975
    70   1 H    0.997 --    33 C    0.983
    71   1 H    0.993 --    33 C    0.979
    72   1 H    0.970 --     1 N    0.942
 ---------------------------------------------------------------------------

molecular dipole:
                 x           y           z       tot (Debye)
 q only:        0.976      -0.193      -0.585
   full:        1.315      -0.368      -0.811       4.036

           -------------------------------------------------
          | TOTAL ENERGY             -101.925125132244 Eh   |
          | GRADIENT NORM               0.003689534105 Eh/α |
          | HOMO-LUMO GAP               1.544488493582 eV   |
           -------------------------------------------------

 * finished run on 2024/04/06 at 11:15:54.084
