   * xtb version 6.6.1 (8d0f1dd) compiled by 'conda@1efc2f54142f' on 2023-08-01
          program call               : xtb xtbopt.xyz --opt crude --input .xc2 --gfn2

   ID    Z sym.   atoms
    1    7 N      1, 17
    2    6 C      2-6, 8, 9, 11-16, 18-23, 25, 26, 28-33
    3    8 O      7, 10, 24, 27
    4    1 H      34-72
########################################################################
[WARNING] Please study the warnings concerning your input carefully
-1- readin_getIntValue: could not parse ''
########################################################################

          :  Hamiltonian                  GFN2-xTB          :
 * total energy  :   -99.1099293 Eh     change       -0.6963319E-12 Eh
 * total energy  :   -99.2676678 Eh     change       -0.1577385E+00 Eh
 * total energy  :   -99.2698438 Eh     change       -0.2176004E-02 Eh
 * total energy  :   -99.2703831 Eh     change       -0.5392783E-03 Eh
 * total energy  :   -99.2705523 Eh     change       -0.1692129E-03 Eh
   *** GEOMETRY OPTIMIZATION CONVERGED AFTER 5 ITERATIONS ***

 final structure:
================
72
 xtb: 6.6.1 (8d0f1dd)
N           -1.67063384016043        3.10830726372062        2.01147704919752
C           -1.80951241399218        2.09531267164472        1.29266701192729
C           -3.02308985895739        1.83229085692744        0.44405026945917
C           -3.52885114159177        0.46088995118069        0.77377295211280
C           -4.80126327457809       -0.25312445825513        0.32095433027454
C           -4.94449948895732       -1.27748936983994       -0.87360735289687
O           -6.23353178622579       -1.46835649025640       -1.34242472206466
C           -6.67824180799128       -0.46046629278166       -2.22159264156099
C           -4.38797743214421       -2.31848567084588        0.07873610578856
O           -4.13304372235610       -3.60043112696013       -0.13098334198739
C           -3.48012681501523       -4.27802366881765        0.92792333253692
C           -4.21985787309207       -1.42617891383153        1.10972785647581
C           -3.12806091531443       -0.56416827577951        1.56817389655613
C           -2.59185439447309        1.86193815345405       -1.04680047561328
C           -1.66311536932153        0.71237917495846       -1.46392968115679
C           -0.28672262611648        0.85040730878463       -0.94033827021038
N            0.48815434742150       -0.16303960264983       -0.56878523139071
C            1.87178220933133        0.05251526739316       -0.21763193995419
C            2.82662589451308       -0.33615909475428       -1.36290498350092
C            4.24950780833815       -0.12760481812971       -0.92547604885564
C            4.89091921369613        1.07977704024059       -1.14644870351436
C            6.19084703971111        1.28292130650595       -0.70908545425103
C            6.87410896933066        0.28145135003105       -0.03426489924732
O            8.13142259084099        0.36732063410833        0.43664549698300
C            8.86176133198594        1.55586379734128        0.23713796235308
C            6.22302405759011       -0.96193200274332        0.19839587394713
O            6.95904083603177       -1.87986584548585        0.85590661655648
C            6.41049050380308       -3.15086211672668        1.10968604092556
C            4.92359422697255       -1.14128660332155       -0.24780088026373
C            0.01333630374642       -1.52576370399624       -0.58255965003355
C           -4.18967976614844        2.83933177015360        0.66533352224529
C           -4.67407089760283        2.81223312545104        2.11350758721719
C           -3.83890830884420        4.27036910111591        0.26907803764638
H           -4.24101938108989       -1.09752874370925       -1.70535632599665
H           -6.70729689905458        0.51800709817647       -1.72950048819236
H           -7.68325207253987       -0.74349217872204       -2.52348161081285
H           -6.03275358221000       -0.39582598961384       -3.10564739190444
H           -3.91522983019986       -3.99287254915149        1.88937516441232
H           -3.62040865455274       -5.34205979367854        0.75210789281147
H           -2.41165785697536       -4.04248946180790        0.93436473819878
H           -5.73814669494183        0.18978567158877        0.61161895005302
H           -2.30067190439876       -0.73976223793726        2.23125483836598
H           -3.49716516577151        1.80518735807533       -1.65267538713923
H           -2.10223924253092        2.81296270745923       -1.25423771392169
H           -2.10424073041281       -0.23982732660107       -1.16836656213171
H           -1.61049542056214        0.72252938102400       -2.56151804879940
H           -1.05026611139301        1.30067946502377        1.19638586457590
H            0.16268989305597        1.83100954675405       -0.94595696918426
H            2.11143628987936       -0.54179793134432        0.66867435987272
H            2.02218140533704        1.10563240879864        0.02692288107856
H            2.60588186824684        0.28314934708437       -2.23344404582339
H            2.66806097624148       -1.38106453072925       -1.63306612341538
H            4.38369131319813        1.87271150741692       -1.67456926602876
H            6.66664471848799        2.23012102428413       -0.90274392464867
H            8.38036294679137        2.40857265401707        0.72550046700544
H            8.99403205792207        1.77040039254305       -0.82745789518032
H            9.83399827527283        1.38057223644556        0.69357387337207
H            7.18998895721628       -3.70772248195066        1.62591005807811
H            5.52735087185035       -3.08576338129285        1.75362362496074
H            6.15062553615783       -3.66890486695044        0.18127332036481
H            4.42419399338546       -2.08351872853815       -0.08365328433704
H           -0.22623087670829       -1.85142940949347       -1.59713364592829
H           -0.88355969736015       -1.62311500994020        0.03408158852151
H            0.78261264494941       -2.17932309869227       -0.17950281398768
H           -5.00911558534066        2.49735359395247        0.02144379141775
H           -3.90562287819488        3.20825425740013        2.77000362228614
H           -4.91854075771490        1.80189312346357        2.43258026976587
H           -5.56386445349159        3.42834643121191        2.21334845832762
H           -2.97506540798034        4.61237509999984        0.82992720834307
H           -3.64004308942283        4.36172083300164       -0.79523899925061
H           -4.67876778463606        4.91844719998693        0.50546752262977
H           -0.81315567393144        3.19085518710459        2.54883717914499

          :  Hamiltonian                  GFN2-xTB          :
         :: total energy             -99.270552343223 Eh    ::
         :: gradient norm              0.008443690118 Eh/a0 ::
         :: HOMO-LUMO gap              1.549890935746 eV    ::
         :: SCC energy              -100.603146363256 Eh    ::
         :: -> dispersion             -0.073067839729 Eh    ::
         :: repulsion energy           1.331287635387 Eh    ::

    * Orbital Energies and Occupations

         #    Occupation            Energy/Eh            Energy/eV
      -------------------------------------------------------------
         1        2.0000           -0.8304185             -22.5968
       ...           ...                  ...                  ...
        78        1.9984           -0.5309373             -14.4475
        79        1.9983           -0.5302880             -14.4299
        80        1.9981           -0.5282935             -14.3756
        81        1.9970           -0.5213768             -14.1874
        82        1.9967           -0.5197743             -14.1438
        83        1.9962           -0.5174375             -14.0802
        84        1.9955           -0.5146654             -14.0048
        85        1.9916           -0.5048813             -13.7385
        86        1.9785           -0.4898502             -13.3295
        87        1.9680           -0.4834662             -13.1558
        88        1.9399           -0.4732675             -12.8783
        89        1.8441           -0.4573676             -12.4456
        90        1.8203           -0.4549046             -12.3786 (HOMO)
        91        0.4345           -0.3979471             -10.8287 (LUMO)
        92        0.0294           -0.3516413              -9.5686
        93        0.0150           -0.3408717              -9.2756
        94        0.0028           -0.3139819              -8.5439
        95        0.0023           -0.3113480              -8.4722
        96        0.0015           -0.3038674              -8.2687
        97        0.0000           -0.1890399              -5.1440
        98                         -0.1488216              -4.0496
        99                         -0.1401439              -3.8135
       100                         -0.1117883              -3.0419
       101                         -0.0726620              -1.9772
       ...                                ...                  ...
       171                          0.6160930              16.7647
      -------------------------------------------------------------
                  HL-Gap            0.0569574 Eh            1.5499 eV

     #   Z          covCN         q      C6AA      α(0)
     1   7 N        1.774    -0.270    27.823     7.811
     2   6 C        2.828     0.099    25.794     8.322
     3   6 C        3.905     0.012    20.323     6.408
     4   6 C        3.368    -0.002    24.893     7.808
     5   6 C        4.375    -0.056    21.496     6.585
     6   6 C        4.015     0.120    18.555     6.119
     7   8 O        1.702    -0.279    18.632     5.828
     8   6 C        3.656     0.033    20.310     6.469
     9   6 C        3.112     0.132    24.980     8.188
    10   8 O        1.704    -0.205    17.412     5.634
    11   6 C        3.666     0.021    20.477     6.489
    12   6 C        3.610    -0.061    22.225     6.808
    13   6 C        3.161    -0.040    28.668     8.753
    14   6 C        3.811    -0.065    21.743     6.637
    15   6 C        3.802    -0.066    21.759     6.641
    16   6 C        2.843     0.003    27.957     8.665
    17   7 N        2.729     0.010    21.082     6.819
    18   6 C        3.755    -0.017    20.926     6.523
    19   6 C        3.808    -0.071    21.846     6.654
    20   6 C        2.970    -0.001    28.038     8.685
    21   6 C        2.922    -0.048    29.201     8.862
    22   6 C        2.914    -0.067    29.674     8.933
    23   6 C        2.865     0.134    25.074     8.208
    24   8 O        1.706    -0.221    17.671     5.676
    25   6 C        3.645     0.025    20.494     6.506
    26   6 C        2.863     0.133    25.089     8.210
    27   8 O        1.706    -0.224    17.724     5.684
    28   6 C        3.645     0.027    20.449     6.500
    29   6 C        2.920    -0.080    30.002     8.982
    30   6 C        3.700    -0.066    21.931     6.697
    31   6 C        3.855    -0.007    20.663     6.465
    32   6 C        3.756    -0.117    22.803     6.809
    33   6 C        3.755    -0.121    22.880     6.820
    34   1 H        0.923     0.027     2.629     2.536
    35   1 H        0.924     0.041     2.438     2.442
    36   1 H        0.925     0.081     1.968     2.194
    37   1 H        0.924     0.037     2.485     2.465
    38   1 H        0.924     0.069     2.098     2.265
    39   1 H        0.925     0.089     1.891     2.150
    40   1 H        0.924     0.053     2.286     2.364
    41   1 H        0.926     0.064     2.151     2.293
    42   1 H        0.926     0.035     2.515     2.480
    43   1 H        0.924     0.061     2.187     2.313
    44   1 H        0.925     0.060     2.193     2.316
    45   1 H        0.924     0.059     2.215     2.328
    46   1 H        0.923     0.079     1.990     2.206
    47   1 H        0.923     0.003     3.011     2.714
    48   1 H        0.926     0.071     2.074     2.252
    49   1 H        0.924     0.068     2.112     2.273
    50   1 H        0.924     0.068     2.102     2.267
    51   1 H        0.924     0.056     2.249     2.345
    52   1 H        0.924     0.055     2.254     2.348
    53   1 H        0.926     0.046     2.364     2.404
    54   1 H        0.926     0.059     2.207     2.323
    55   1 H        0.924     0.055     2.263     2.353
    56   1 H        0.924     0.056     2.242     2.341
    57   1 H        0.925     0.083     1.951     2.184
    58   1 H        0.925     0.082     1.957     2.188
    59   1 H        0.924     0.048     2.348     2.396
    60   1 H        0.924     0.052     2.291     2.367
    61   1 H        0.926     0.046     2.377     2.411
    62   1 H        0.924     0.076     2.020     2.223
    63   1 H        0.924     0.072     2.069     2.249
    64   1 H        0.925     0.081     1.970     2.195
    65   1 H        0.924     0.036     2.498     2.472
    66   1 H        0.925     0.065     2.144     2.290
    67   1 H        0.925     0.037     2.494     2.470
    68   1 H        0.925     0.052     2.297     2.370
    69   1 H        0.925     0.067     2.116     2.275
    70   1 H        0.925     0.036     2.507     2.476
    71   1 H        0.925     0.056     2.245     2.343
    72   1 H        0.860     0.157     1.354     1.823

Wiberg/Mayer (AO) data.
largest (>0.10) Wiberg bond orders for each atom

     #   Z sym  total        # sym  WBO       # sym  WBO       # sym  WBO
 ---------------------------------------------------------------------------
     1   7 N    3.025 --     2 C    1.955    72 H    0.942
     2   6 C    3.935 --     1 N    1.955     3 C    0.991    47 H    0.917
     3   6 C    3.972 --     2 C    0.991     4 C    0.984    14 C    0.943
                            31 C    0.940
     4   6 C    3.894 --    13 C    1.724     3 C    0.984     5 C    0.977
     5   6 C    3.935 --     4 C    0.977    12 C    0.959    41 H    0.956
                             6 C    0.915
     6   6 C    3.946 --     7 O    1.009     9 C    0.975    34 H    0.934
                             5 C    0.915
     7   8 O    2.111 --     6 C    1.009     8 C    0.981
     8   6 C    3.935 --     7 O    0.981    36 H    0.976    35 H    0.976
                            37 H    0.975
     9   6 C    3.834 --    12 C    1.511    10 O    1.158     6 C    0.975
    10   8 O    2.308 --     9 C    1.158    11 C    0.959    12 C    0.116
    11   6 C    3.920 --    39 H    0.977    38 H    0.974    40 H    0.974
                            10 O    0.959
    12   6 C    3.775 --     9 C    1.511    13 C    1.081     5 C    0.959
                            10 O    0.116
    13   6 C    3.943 --     4 C    1.724    12 C    1.081    42 H    0.966
    14   6 C    3.974 --    15 C    0.989    44 H    0.971    43 H    0.970
                             3 C    0.943
    15   6 C    3.989 --    16 C    1.060    14 C    0.989    45 H    0.957
                            46 H    0.926
    16   6 C    3.561 --    17 N    1.397    15 C    1.060    48 H    0.958
    17   7 N    3.465 --    16 C    1.397    30 C    0.999    18 C    0.988
    18   6 C    3.955 --    17 N    0.988    50 H    0.968    19 C    0.967
                            49 H    0.963
    19   6 C    3.976 --    20 C    1.007    51 H    0.973    52 H    0.971
                            18 C    0.967
    20   6 C    3.944 --    21 C    1.411    29 C    1.378    19 C    1.007
    21   6 C    3.950 --    22 C    1.416    20 C    1.411    53 H    0.968
    22   6 C    3.959 --    21 C    1.416    23 C    1.384    54 H    0.963
    23   6 C    3.895 --    22 C    1.384    26 C    1.218    24 O    1.111
    24   8 O    2.256 --    23 C    1.111    25 C    0.976
    25   6 C    3.928 --    57 H    0.977    24 O    0.976    55 H    0.973
                            56 H    0.972
    26   6 C    3.899 --    29 C    1.396    23 C    1.218    27 O    1.104
    27   8 O    2.255 --    26 C    1.104    28 C    0.979
    28   6 C    3.932 --    27 O    0.979    58 H    0.977    59 H    0.973
                            60 H    0.973
    29   6 C    3.959 --    26 C    1.396    20 C    1.378    61 H    0.963
    30   6 C    3.960 --    17 N    0.999    64 H    0.978    62 H    0.968
                            63 H    0.964
    31   6 C    3.973 --    32 C    1.008    33 C    1.008    65 H    0.962
                             3 C    0.940
    32   6 C    3.982 --    31 C    1.008    68 H    0.982    67 H    0.981
                            66 H    0.976
    33   6 C    3.980 --    31 C    1.008    70 H    0.983    71 H    0.979
                            69 H    0.975
    34   1 H    0.995 --     6 C    0.934
    35   1 H    0.995 --     8 C    0.976
    36   1 H    0.992 --     8 C    0.976
    37   1 H    0.996 --     8 C    0.975
    38   1 H    0.993 --    11 C    0.974
    39   1 H    0.991 --    11 C    0.977
    40   1 H    0.993 --    11 C    0.974
    41   1 H    0.995 --     5 C    0.956
    42   1 H    0.997 --    13 C    0.966
    43   1 H    0.995 --    14 C    0.970
    44   1 H    0.995 --    14 C    0.971
    45   1 H    0.994 --    15 C    0.957
    46   1 H    0.967 --    15 C    0.926
    47   1 H    0.987 --     2 C    0.917
    48   1 H    0.995 --    16 C    0.958
    49   1 H    0.990 --    18 C    0.963
    50   1 H    0.994 --    18 C    0.968
    51   1 H    0.996 --    19 C    0.973
    52   1 H    0.996 --    19 C    0.971
    53   1 H    0.997 --    21 C    0.968
    54   1 H    0.995 --    22 C    0.963
    55   1 H    0.992 --    25 C    0.973
    56   1 H    0.991 --    25 C    0.972
    57   1 H    0.992 --    25 C    0.977
    58   1 H    0.993 --    28 C    0.977
    59   1 H    0.993 --    28 C    0.973
    60   1 H    0.993 --    28 C    0.973
    61   1 H    0.997 --    29 C    0.963
    62   1 H    0.985 --    30 C    0.968
    63   1 H    0.987 --    30 C    0.964
    64   1 H    0.993 --    30 C    0.978
    65   1 H    0.993 --    31 C    0.962
    66   1 H    0.992 --    32 C    0.976
    67   1 H    0.997 --    32 C    0.981
    68   1 H    0.995 --    32 C    0.982
    69   1 H    0.992 --    33 C    0.975
    70   1 H    0.997 --    33 C    0.983
    71   1 H    0.993 --    33 C    0.979
    72   1 H    0.970 --     1 N    0.942
 ---------------------------------------------------------------------------

molecular dipole:
                 x           y           z       tot (Debye)
 q only:        1.035      -0.198      -0.584
   full:        1.347      -0.375      -0.797       4.091

           -------------------------------------------------
          | TOTAL ENERGY              -99.270552343223 Eh   |
          | GRADIENT NORM               0.008443690118 Eh/α |
          | HOMO-LUMO GAP               1.549890935746 eV   |
           -------------------------------------------------

 * finished run on 2024/04/06 at 11:15:55.206
