   * xtb version 6.6.1 (8d0f1dd) compiled by 'conda@1efc2f54142f' on 2023-08-01
          program call               : xtb struc.xyz --opt loose --input .xc1 --gfn2

   ID    Z sym.   atoms
    1    6 C      1, 3, 5-7, 10, 11, 14
    2    7 N      2, 4, 9, 13
    3    8 O      8, 12
    4    1 H      15-25
constraining bond 2 6 to    3.9200000 Å, actual value:    1.3708515 Å

          :  Hamiltonian                  GFN2-xTB          :
 * total energy  :   -30.6426141 Eh     change       -0.6633627E-10 Eh
 * total energy  :   -34.7982192 Eh     change       -0.4155605E+01 Eh
 * total energy  :   -38.2741874 Eh     change       -0.3475968E+01 Eh
 * total energy  :   -40.4909888 Eh     change       -0.2216801E+01 Eh
 * total energy  :   -41.4873218 Eh     change       -0.9963331E+00 Eh
 * total energy  :   -41.6546372 Eh     change       -0.1673153E+00 Eh
 * total energy  :   -41.6949089 Eh     change       -0.4027173E-01 Eh
 * total energy  :   -41.7759077 Eh     change       -0.8099879E-01 Eh
 * total energy  :   -41.8330610 Eh     change       -0.5715327E-01 Eh
 * total energy  :   -41.8885336 Eh     change       -0.5547269E-01 Eh
 * total energy  :   -42.1297977 Eh     change       -0.4070825E-02 Eh
 * total energy  :   -42.1326828 Eh     change       -0.2885049E-02 Eh
 * total energy  :   -42.1350642 Eh     change       -0.2381377E-02 Eh
 * total energy  :   -42.1363538 Eh     change       -0.1289640E-02 Eh
 * total energy  :   -42.1366525 Eh     change       -0.2986649E-03 Eh
 * total energy  :   -42.1368084 Eh     change       -0.1559602E-03 Eh
 * total energy  :   -42.1369011 Eh     change       -0.9261552E-04 Eh
 * total energy  :   -42.1369670 Eh     change       -0.6596863E-04 Eh
 * total energy  :   -42.1370020 Eh     change       -0.3492968E-04 Eh
   *** GEOMETRY OPTIMIZATION CONVERGED AFTER 32 ITERATIONS ***

 final structure:
================
25
 xtb: 6.6.1 (8d0f1dd)
C            3.33161785536334        0.89375339735250        0.04351979401095
N            3.57151927447725       -0.48310398110401        0.02571319363741
C            2.71257415601647       -1.38547805145910        0.00107424859803
N            1.28689251935835       -1.40594574586092       -0.01885331770101
C            0.17131306540246       -0.63431286545567       -0.01102127464930
C           -0.13418882880430        0.76883951585878       -0.01790651612496
C            0.65841313593006        1.86327540373486       -0.03232147461034
O            0.87685826080939        3.00204649927494       -0.05654844115482
N           -1.53588634792966        0.88798340502301       -0.00885500323156
C           -2.31694653917168        2.10402178816147       -0.00527482355036
C           -2.10385228393246       -0.34632252352568        0.00012587116524
O           -3.25763457721284       -0.64909218739950        0.01053661366789
N           -1.01690337603440       -1.26781953823336       -0.00375421798131
C           -1.27495426789932       -2.68515519818728        0.00180327406464
H            3.75899981422743        1.32623361647999        0.95105128857265
H            3.81866009057706        1.36011235049392       -0.81565405966373
H            2.22876716613758        1.15122225572075        0.01225144524050
H            3.08234848654406       -2.40187440628102       -0.00931025190599
H           -1.66615584293391        2.97255224506228        0.02326618753627
H           -2.93717687459252        2.14365646048277       -0.90171196379978
H           -2.97190357023794        2.11117516478604        0.86677432829825
H           -0.86943566033356       -3.16154348457374        0.89645210672988
H           -0.88726137599705       -3.16562916095874       -0.89871532261054
H           -2.36037298039116       -2.79909363531463        0.01232357884758
H            0.99514021472696       -2.38126278247772       -0.03379364548573

          :  Hamiltonian                  GFN2-xTB          :
         :: total energy             -42.137001953877 Eh    ::
         :: gradient norm              0.003209057314 Eh/a0 ::
         :: HOMO-LUMO gap              1.974655464609 eV    ::
         :: SCC energy               -42.685883790038 Eh    ::
         :: -> dispersion             -0.021882921807 Eh    ::
         :: repulsion energy           0.548638498852 Eh    ::

    * Orbital Energies and Occupations

         #    Occupation            Energy/Eh            Energy/eV
      -------------------------------------------------------------
         1        2.0000           -0.9409398             -25.6043
       ...           ...                  ...                  ...
        25        2.0000           -0.6765773             -18.4106
        26        2.0000           -0.6752659             -18.3749
        27        2.0000           -0.6674436             -18.1621
        28        2.0000           -0.6536581             -17.7869
        29        2.0000           -0.6379549             -17.3596
        30        2.0000           -0.6344620             -17.2646
        31        2.0000           -0.6320895             -17.2000
        32        2.0000           -0.6250854             -17.0094
        33        2.0000           -0.6035774             -16.4242
        34        1.9998           -0.5822806             -15.8447
        35        1.9998           -0.5802249             -15.7887
        36        1.9965           -0.5576902             -15.1755
        37        1.9767           -0.5425529             -14.7636 (HOMO)
        38        0.0176           -0.4699857             -12.7890 (LUMO)
        39        0.0096           -0.4651881             -12.6584
        40        0.0000           -0.3890592             -10.5868
        41                         -0.3442381              -9.3672
        42                         -0.3227079              -8.7813
        43                         -0.2224793              -6.0540
        44                         -0.1939681              -5.2781
        45                         -0.1282334              -3.4894
        46                         -0.1201870              -3.2705
        47                         -0.0806617              -2.1949
        48                         -0.0522069              -1.4206
       ...                                ...                  ...
        67                          0.8031317              21.8543
      -------------------------------------------------------------
                  HL-Gap            0.0725673 Eh            1.9747 eV

     #   Z          covCN         q      C6AA      α(0)
     1   6 C        3.701    -0.029    21.254     6.592
     2   7 N        1.820    -0.134    24.684     7.362
     3   6 C        2.771     0.108    25.593     8.285
     4   7 N        2.689    -0.134    23.900     7.261
     5   6 C        2.893     0.141    24.926     8.186
     6   6 C        3.013    -0.002    28.059     8.689
     7   6 C        1.856     0.257    25.220     8.112
     8   8 O        0.856    -0.129    16.947     5.519
     9   7 N        2.796    -0.056    22.315     7.016
    10   6 C        3.690    -0.064    21.928     6.701
    11   6 C        2.825     0.315    21.659     7.626
    12   8 O        0.857    -0.357    20.836     6.120
    13   7 N        2.833    -0.054    22.275     7.010
    14   6 C        3.689    -0.075    22.137     6.734
    15   1 H        0.924     0.112     1.680     2.027
    16   1 H        0.924     0.112     1.677     2.025
    17   1 H        0.929     0.055     2.252     2.346
    18   1 H        0.925     0.104     1.749     2.068
    19   1 H        0.925     0.086     1.921     2.168
    20   1 H        0.924     0.101     1.775     2.084
    21   1 H        0.924     0.102     1.763     2.077
    22   1 H        0.924     0.088     1.894     2.152
    23   1 H        0.924     0.088     1.895     2.153
    24   1 H        0.924     0.132     1.521     1.928
    25   1 H        0.860     0.231     0.961     1.535

Wiberg/Mayer (AO) data.
largest (>0.10) Wiberg bond orders for each atom

     #   Z sym  total        # sym  WBO       # sym  WBO       # sym  WBO
 ---------------------------------------------------------------------------
     1   6 C    3.965 --     2 N    1.093    16 H    0.943    15 H    0.942
                            17 H    0.809
     2   7 N    3.265 --     3 C    1.853     1 C    1.093     4 N    0.104
     3   6 C    3.948 --     2 N    1.853     4 N    1.040    18 H    0.942
     4   7 N    3.520 --     5 C    1.247     3 C    1.040    25 H    0.903
                             2 N    0.104
     5   6 C    3.961 --    13 N    1.292     4 N    1.247     6 C    1.185
     6   6 C    3.913 --     7 C    1.394     5 C    1.185     9 N    1.034
                             8 O    0.136
     7   6 C    3.893 --     8 O    2.044     6 C    1.394    17 H    0.153
     8   8 O    2.460 --     7 C    2.044     6 C    0.136
     9   7 N    3.524 --    11 C    1.167     6 C    1.034    10 C    0.980
                            12 O    0.176
    10   6 C    3.929 --     9 N    0.980    19 H    0.977    21 H    0.966
                            20 H    0.966
    11   6 C    3.958 --    12 O    1.703     9 N    1.167    13 N    0.988
    12   8 O    2.075 --    11 C    1.703     9 N    0.176    13 N    0.110
    13   7 N    3.606 --     5 C    1.292    11 C    0.988    14 C    0.987
                            12 O    0.110
    14   6 C    3.929 --    13 N    0.987    22 H    0.963    23 H    0.962
                            24 H    0.959
    15   1 H    0.985 --     1 C    0.942
    16   1 H    0.985 --     1 C    0.943
    17   1 H    0.996 --     1 C    0.809     7 C    0.153
    18   1 H    0.988 --     3 C    0.942
    19   1 H    0.992 --    10 C    0.977
    20   1 H    0.987 --    10 C    0.966
    21   1 H    0.987 --    10 C    0.966
    22   1 H    0.989 --    14 C    0.963
    23   1 H    0.989 --    14 C    0.962
    24   1 H    0.982 --    14 C    0.959
    25   1 H    0.946 --     4 N    0.903
 ---------------------------------------------------------------------------

molecular dipole:
                 x           y           z       tot (Debye)
 q only:        1.556      -0.736       0.001
   full:        1.472      -0.802      -0.004       4.262

           -------------------------------------------------
          | TOTAL ENERGY              -42.137001953877 Eh   |
          | GRADIENT NORM               0.003209057314 Eh/α |
          | HOMO-LUMO GAP               1.974655464609 eV   |
           -------------------------------------------------

 * finished run on 2024/06/05 at 19:57:52.835
