   * xtb version 6.6.1 (8d0f1dd) compiled by 'conda@1efc2f54142f' on 2023-08-01
          program call               : xtb xtbopt.xyz --opt crude --input .xc2 --gfn2

   ID    Z sym.   atoms
    1    6 C      1, 3, 5-7, 10, 11, 14
    2    7 N      2, 4, 9, 13
    3    8 O      8, 12
    4    1 H      15-25
########################################################################
[WARNING] Please study the warnings concerning your input carefully
-1- readin_getIntValue: could not parse ''
########################################################################

          :  Hamiltonian                  GFN2-xTB          :
 * total energy  :   -42.1371244 Eh     change       -0.3552714E-13 Eh
 * total energy  :   -42.1390524 Eh     change       -0.1927990E-02 Eh
 * total energy  :   -42.1409132 Eh     change       -0.1860768E-02 Eh
 * total energy  :   -42.1406686 Eh     change        0.2445394E-03 Eh
 * total energy  :   -42.1420474 Eh     change       -0.1378721E-02 Eh
 * total energy  :   -42.1425865 Eh     change       -0.5391158E-03 Eh
 * total energy  :   -42.1432668 Eh     change       -0.6803375E-03 Eh
 * total energy  :   -42.1434689 Eh     change       -0.2020952E-03 Eh
   *** GEOMETRY OPTIMIZATION CONVERGED AFTER 8 ITERATIONS ***

 final structure:
================
25
 xtb: 6.6.1 (8d0f1dd)
C            3.23393396734875        0.98694348087007        0.03658685703998
N            3.39481954538216       -0.35955938694705        0.01372843246273
C            2.66541368027144       -1.36943053112194       -0.00327833298639
N            1.28475858571359       -1.53228143185480       -0.01251963533171
C            0.18654495491157       -0.72389521483030       -0.00511275467704
C           -0.03320754626636        0.67485582450919       -0.00794865027542
C            0.77727631912637        1.78149996031577       -0.01580739401507
O            0.74458746935179        2.95722084277469       -0.04491555086953
N           -1.43381128931654        0.86127748938665       -0.00334040073566
C           -2.17128800887019        2.10323363055444       -0.00795595486150
C           -2.06398476639499       -0.34091502591611        0.00125969496174
O           -3.23132021427666       -0.59019045281103        0.00741311813835
N           -1.02271661050006       -1.31245575981454       -0.00025051861994
C           -1.33926503866757       -2.71720040984542        0.00207081870277
H            3.64888532997480        1.42059198099506        0.95010651833536
H            3.69688153939730        1.45560658833512       -0.83568482135887
H            2.09540959232429        1.31953932378207        0.01340823301012
H            3.17510008926527       -2.32479171449490       -0.01444486686357
H           -1.49597436734998        2.95203771367693        0.04460321604805
H           -2.76687251887350        2.17119366755227       -0.91924421380061
H           -2.84591471895903        2.12294259436312        0.84835776129505
H           -0.95368764465072       -3.21207551322207        0.89505244830789
H           -0.97115956215972       -3.21113023564816       -0.89890020565357
H           -2.42903928021917       -2.78337465743134        0.01219480847801
H            1.01506200753668       -2.51140422157765       -0.02420698883124

          :  Hamiltonian                  GFN2-xTB          :
         :: total energy             -42.143468903193 Eh    ::
         :: gradient norm              0.005855900679 Eh/a0 ::
         :: HOMO-LUMO gap              1.983665546797 eV    ::
         :: SCC energy               -42.689876603821 Eh    ::
         :: -> dispersion             -0.022024672834 Eh    ::
         :: repulsion energy           0.546275471334 Eh    ::

    * Orbital Energies and Occupations

         #    Occupation            Energy/Eh            Energy/eV
      -------------------------------------------------------------
         1        2.0000           -0.9190660             -25.0091
       ...           ...                  ...                  ...
        25        2.0000           -0.6758027             -18.3895
        26        2.0000           -0.6685266             -18.1915
        27        2.0000           -0.6625185             -18.0280
        28        2.0000           -0.6522470             -17.7485
        29        2.0000           -0.6475333             -17.6203
        30        2.0000           -0.6343124             -17.2605
        31        2.0000           -0.6308245             -17.1656
        32        2.0000           -0.6151207             -16.7383
        33        2.0000           -0.5974800             -16.2583
        34        1.9999           -0.5831765             -15.8690
        35        1.9998           -0.5720918             -15.5674
        36        1.9994           -0.5641514             -15.3513
        37        1.9754           -0.5342919             -14.5388 (HOMO)
        38        0.0159           -0.4613935             -12.5552 (LUMO)
        39        0.0095           -0.4573002             -12.4438
        40        0.0000           -0.3932194             -10.7000
        41                         -0.3367824              -9.1643
        42                         -0.3179841              -8.6528
        43                         -0.1991414              -5.4189
        44                         -0.1895956              -5.1592
        45                         -0.1157310              -3.1492
        46                         -0.1050620              -2.8589
        47                         -0.0827471              -2.2517
        48                         -0.0483752              -1.3164
       ...                                ...                  ...
        67                          0.6533443              17.7784
      -------------------------------------------------------------
                  HL-Gap            0.0728984 Eh            1.9837 eV

     #   Z          covCN         q      C6AA      α(0)
     1   6 C        3.667    -0.020    21.198     6.602
     2   7 N        1.822    -0.121    24.397     7.319
     3   6 C        2.759     0.111    25.530     8.274
     4   7 N        2.690    -0.122    23.658     7.224
     5   6 C        2.908     0.131    25.128     8.220
     6   6 C        3.007    -0.008    28.206     8.712
     7   6 C        2.391     0.231    23.793     7.946
     8   8 O        0.856    -0.195    17.989     5.686
     9   7 N        2.807    -0.059    22.374     7.025
    10   6 C        3.692    -0.065    21.946     6.703
    11   6 C        2.827     0.312    21.704     7.634
    12   8 O        0.857    -0.365    21.000     6.144
    13   7 N        2.834    -0.054    22.281     7.011
    14   6 C        3.689    -0.074    22.109     6.730
    15   1 H        0.924     0.126     1.568     1.959
    16   1 H        0.924     0.126     1.565     1.956
    17   1 H        1.442     0.109     1.696     2.033
    18   1 H        0.925     0.112     1.677     2.025
    19   1 H        0.925     0.096     1.825     2.112
    20   1 H        0.924     0.098     1.804     2.101
    21   1 H        0.924     0.100     1.784     2.089
    22   1 H        0.924     0.086     1.919     2.166
    23   1 H        0.924     0.086     1.919     2.166
    24   1 H        0.924     0.130     1.533     1.936
    25   1 H        0.860     0.230     0.966     1.540

Wiberg/Mayer (AO) data.
largest (>0.10) Wiberg bond orders for each atom

     #   Z sym  total        # sym  WBO       # sym  WBO       # sym  WBO
 ---------------------------------------------------------------------------
     1   6 C    3.947 --     2 N    1.197    16 H    0.935    15 H    0.934
                            17 H    0.615     8 O    0.120
     2   7 N    3.371 --     3 C    1.783     1 C    1.197     7 C    0.114
                             4 N    0.112
     3   6 C    3.952 --     2 N    1.783     4 N    1.110    18 H    0.935
     4   7 N    3.524 --     5 C    1.193     3 C    1.110    25 H    0.907
                             2 N    0.112
     5   6 C    3.957 --    13 N    1.286     6 C    1.244     4 N    1.193
     6   6 C    3.916 --     7 C    1.317     5 C    1.244     9 N    1.041
                             8 O    0.114
     7   6 C    3.919 --     8 O    1.913     6 C    1.317    17 H    0.333
                             2 N    0.114
     8   8 O    2.389 --     7 C    1.913     1 C    0.120     6 C    0.114
     9   7 N    3.535 --    11 C    1.172     6 C    1.041    10 C    0.983
                            12 O    0.177
    10   6 C    3.925 --     9 N    0.983    19 H    0.970    21 H    0.966
                            20 H    0.965
    11   6 C    3.956 --    12 O    1.695     9 N    1.172    13 N    0.990
    12   8 O    2.064 --    11 C    1.695     9 N    0.177    13 N    0.114
    13   7 N    3.604 --     5 C    1.286    11 C    0.990    14 C    0.988
                            12 O    0.114
    14   6 C    3.931 --    13 N    0.988    22 H    0.964    23 H    0.964
                            24 H    0.960
    15   1 H    0.982 --     1 C    0.934
    16   1 H    0.982 --     1 C    0.935
    17   1 H    0.988 --     1 C    0.615     7 C    0.333
    18   1 H    0.984 --     3 C    0.935
    19   1 H    0.990 --    10 C    0.970
    20   1 H    0.987 --    10 C    0.965
    21   1 H    0.987 --    10 C    0.966
    22   1 H    0.989 --    14 C    0.964
    23   1 H    0.988 --    14 C    0.964
    24   1 H    0.983 --    14 C    0.960
    25   1 H    0.947 --     4 N    0.907
 ---------------------------------------------------------------------------

molecular dipole:
                 x           y           z       tot (Debye)
 q only:        2.267      -1.049       0.019
   full:        2.301      -1.198       0.019       6.595

           -------------------------------------------------
          | TOTAL ENERGY              -42.143468903193 Eh   |
          | GRADIENT NORM               0.005855900679 Eh/α |
          | HOMO-LUMO GAP               1.983665546797 eV   |
           -------------------------------------------------

 * finished run on 2024/06/05 at 19:57:53.215
