   * xtb version 6.6.1 (8d0f1dd) compiled by 'conda@1efc2f54142f' on 2023-08-01
          program call               : xtb xtbopt.xyz --opt crude --input .xc2 --gfn2

   ID    Z sym.   atoms
    1    6 C      1, 3, 5-7, 10, 11, 14
    2    7 N      2, 4, 9, 13
    3    8 O      8, 12
    4    1 H      15-25

          :  Hamiltonian                  GFN2-xTB          :
 * total energy  :   -42.1360239 Eh     change       -0.1286082E-11 Eh
   *** GEOMETRY OPTIMIZATION CONVERGED AFTER 1 ITERATIONS ***

 final structure:
================
25
 xtb: 6.6.1 (8d0f1dd)
C            3.24133627228073        1.11518598953813       -0.01882704676337
N            2.30565725658985        0.02481014064473       -0.01709317495630
C            2.59976932720419       -1.28014655330573       -0.04789571450810
N            1.45436500424734       -2.00972038569084       -0.01431018678423
C            0.40327692907656       -1.14173767500688        0.04174204090800
C            0.93300619067524        0.14651903967059        0.04260168049198
C            0.11289926507714        1.31455395525438        0.08118375104288
O            0.46560095786300        2.47630885071892        0.06189336183397
N           -1.28609324410923        0.97269705475239        0.15106664728912
C           -2.15952932552670        1.98966113832170        0.22306752264288
C           -1.82711934890626       -0.34091564594603        0.14396554653629
O           -3.01534706896980       -0.52679757224285        0.18633282460846
N           -0.92213434867656       -1.39915564181164        0.08197717443384
C           -1.43585877056006       -2.75462581398972        0.07434147157351
H            3.75803570547681        1.17577338170402        0.94080081610343
H            3.98027246625634        0.97718210179913       -0.80745836536669
H            2.69670468142819        2.04436801597298       -0.18245974486964
H            3.58694990601415       -1.69172322871056       -0.09569445328505
H           -1.76480776766452        2.98978190773269        0.22901251635588
H           -3.42606429793220        4.25514672985540       -1.51068699637658
H           -3.20815586189939        1.76926049567907        0.27687654371263
H           -1.10942540558874       -3.29262227554015        0.96523087683877
H           -1.10766844284864       -3.28046943343815       -0.82248072008716
H           -2.52366316493661       -2.69724875368666        0.07440950769951
H            1.40842459952911       -3.01784728067479       -0.02642426117400

          :  Hamiltonian                  GFN2-xTB          :
         :: total energy             -42.136023850271 Eh    ::
         :: gradient norm              0.002604874674 Eh/a0 ::
         :: HOMO-LUMO gap              0.232531798082 eV    ::
         :: SCC energy               -42.651367474661 Eh    ::
         :: -> dispersion             -0.022636137281 Eh    ::
         :: repulsion energy           0.515257262945 Eh    ::

    * Orbital Energies and Occupations

         #    Occupation            Energy/Eh            Energy/eV
      -------------------------------------------------------------
         1        2.0000           -0.9055075             -24.6401
       ...           ...                  ...                  ...
        25        1.9994           -0.6721210             -18.2893
        26        1.9993           -0.6682042             -18.1828
        27        1.9992           -0.6631390             -18.0449
        28        1.9969           -0.6319279             -17.1956
        29        1.9966           -0.6292103             -17.1217
        30        1.9964           -0.6282166             -17.0946
        31        1.9943           -0.6173365             -16.7986
        32        1.9935           -0.6142191             -16.7138
        33        1.9930           -0.6123333             -16.6624
        34        1.9793           -0.5864322             -15.9576
        35        1.9557           -0.5680278             -15.4568
        36        1.9313           -0.5573396             -15.1660
        37        1.0164           -0.4788666             -13.0306 (HOMO)
        38        0.8380           -0.4703212             -12.7981 (LUMO)
        39        0.2201           -0.4284407             -11.6585
        40        0.0686           -0.3988040             -10.8520
        41        0.0230           -0.3722556             -10.1296
        42        0.0007           -0.2876162              -7.8264
        43        0.0000           -0.2077396              -5.6529
        44        0.0000           -0.1953832              -5.3166
        45        0.0000           -0.1496786              -4.0730
        46        0.0000           -0.1448147              -3.9406
        47                         -0.0766301              -2.0852
        48                         -0.0523034              -1.4232
       ...                                ...                  ...
        67                          0.5402070              14.6998
      -------------------------------------------------------------
                  HL-Gap            0.0085454 Eh            0.2325 eV

     #   Z          covCN         q      C6AA      α(0)
     1   6 C        3.691    -0.091    22.436     6.778
     2   7 N        2.822     0.069    20.032     6.647
     3   6 C        3.037     0.041    27.052     8.531
     4   7 N        2.783    -0.062    22.438     7.035
     5   6 C        3.031     0.103    25.702     8.316
     6   6 C        3.098    -0.020    28.372     8.729
     7   6 C        2.774     0.250    22.796     7.820
     8   8 O        0.857    -0.356    20.825     6.118
     9   7 N        2.740    -0.030    21.826     6.939
    10   6 C        2.815    -0.023    28.565     8.757
    11   6 C        2.737     0.306    21.810     7.646
    12   8 O        0.859    -0.348    20.672     6.096
    13   7 N        2.736    -0.046    22.123     6.986
    14   6 C        3.699    -0.073    22.070     6.719
    15   1 H        0.924     0.107     1.718     2.050
    16   1 H        0.925     0.104     1.748     2.067
    17   1 H        0.925     0.133     1.514     1.924
    18   1 H        0.926     0.120     1.610     1.984
    19   1 H        0.926     0.135     1.500     1.915
    20   1 H        0.000     0.021     6.788     4.764
    21   1 H        0.926     0.131     1.527     1.932
    22   1 H        0.924     0.088     1.903     2.157
    23   1 H        0.925     0.086     1.915     2.164
    24   1 H        0.925     0.129     1.545     1.944
    25   1 H        0.860     0.226     0.981     1.552

Wiberg/Mayer (AO) data.
largest (>0.10) Wiberg bond orders for each atom

     #   Z sym  total        # sym  WBO       # sym  WBO       # sym  WBO
 ---------------------------------------------------------------------------
     1   6 C    3.911 --     2 N    0.990    16 H    0.962    17 H    0.959
                            15 H    0.954
     2   7 N    3.600 --     3 C    1.341     6 C    1.143     1 C    0.990
     3   6 C    3.735 --     2 N    1.341     4 N    1.248    18 H    0.955
     4   7 N    3.542 --     3 C    1.248     5 C    1.189    25 H    0.921
     5   6 C    3.857 --     6 C    1.310     4 N    1.189    13 N    1.184
     6   6 C    3.868 --     5 C    1.310     2 N    1.143     7 C    1.126
     7   6 C    3.838 --     8 O    1.650     6 C    1.126     9 N    0.978
     8   8 O    1.907 --     7 C    1.650
     9   7 N    3.583 --    10 C    1.332    11 C    1.022     7 C    0.978
    10   6 C    3.319 --     9 N    1.332    21 H    0.957    19 H    0.954
    11   6 C    3.879 --    12 O    1.684    13 N    1.083     9 N    1.022
    12   8 O    1.975 --    11 C    1.684    13 N    0.124
    13   7 N    3.526 --     5 C    1.184    11 C    1.083    14 C    0.974
                            12 O    0.124
    14   6 C    3.915 --    13 N    0.974    23 H    0.968    22 H    0.967
                            24 H    0.962
    15   1 H    0.978 --     1 C    0.954
    16   1 H    0.982 --     1 C    0.962
    17   1 H    0.980 --     1 C    0.959
    18   1 H    0.984 --     3 C    0.955
    19   1 H    0.978 --    10 C    0.954
    20   1 H    0.008
    21   1 H    0.979 --    10 C    0.957
    22   1 H    0.985 --    14 C    0.967
    23   1 H    0.986 --    14 C    0.968
    24   1 H    0.981 --    14 C    0.962
    25   1 H    0.948 --     4 N    0.921
 ---------------------------------------------------------------------------

molecular dipole:
                 x           y           z       tot (Debye)
 q only:        2.217      -1.917      -0.008
   full:        2.439      -2.348      -0.012       8.605

           -------------------------------------------------
          | TOTAL ENERGY              -42.136023850271 Eh   |
          | GRADIENT NORM               0.002604874674 Eh/α |
          | HOMO-LUMO GAP               0.232531798082 eV   |
           -------------------------------------------------

 * finished run on 2024/06/05 at 19:58:53.722
