   * xtb version 6.6.1 (8d0f1dd) compiled by 'conda@1efc2f54142f' on 2023-08-01
          program call               : xtb struc.xyz --opt loose --input .xc1 --gfn2

   ID    Z sym.   atoms
    1    7 N      1, 17
    2    6 C      2-6, 8, 9, 11-16, 18-23, 25, 26, 28-33
    3    8 O      7, 10, 24, 27
    4    1 H      34-72
constraining bond 1 66 to    5.6866700 Å, actual value:    2.3500839 Å

          :  Hamiltonian                  GFN2-xTB          :
 * total energy  :  -101.3919292 Eh     change       -0.4035485E-08 Eh
 * total energy  :  -102.2459360 Eh     change       -0.8540068E+00 Eh
 * total energy  :  -103.1974889 Eh     change       -0.9515529E+00 Eh
 * total energy  :  -100.1471096 Eh     change        0.3050379E+01 Eh
 * total energy  :  -103.4800607 Eh     change       -0.3332951E+01 Eh
 * total energy  :  -103.5271513 Eh     change       -0.4709058E-01 Eh
 * total energy  :  -103.5678075 Eh     change       -0.4065623E-01 Eh
 * total energy  :  -103.5786207 Eh     change       -0.1081319E-01 Eh
 * total energy  :  -103.5864791 Eh     change       -0.7858386E-02 Eh
 * total energy  :  -103.5894968 Eh     change       -0.3017675E-02 Eh
 * total energy  :  -103.6048813 Eh     change       -0.1784554E-03 Eh
 * total energy  :  -103.6050643 Eh     change       -0.1830077E-03 Eh
 * total energy  :  -103.6049350 Eh     change        0.1293359E-03 Eh
 * total energy  :  -103.6052887 Eh     change       -0.3537348E-03 Eh
 * total energy  :  -103.6053381 Eh     change       -0.4941407E-04 Eh
 * total energy  :  -103.6054091 Eh     change       -0.7101061E-04 Eh
 * total energy  :  -103.6054483 Eh     change       -0.3915252E-04 Eh
 * total energy  :  -103.6054989 Eh     change       -0.5060366E-04 Eh
 * total energy  :  -103.6055416 Eh     change       -0.4272198E-04 Eh
   *** GEOMETRY OPTIMIZATION CONVERGED AFTER 50 ITERATIONS ***

 final structure:
================
72
 xtb: 6.6.1 (8d0f1dd)
N           -2.20279535922100        2.09352914565436        2.42501713064147
C           -1.90006600212664        2.21449550583212        1.10285370969565
C           -2.91076870524289        1.85177937517613        0.12563515648329
C           -3.46676872876515        0.44428924434316        0.25660532139675
C           -4.51398526201963        0.03101811645873       -0.57171730262693
C           -5.03452849638044       -1.24918411006342       -0.50576931019886
O           -6.03563789828681       -1.72515565636740       -1.27797422518273
C           -6.63908228700697       -0.87758398615054       -2.22597853340459
C           -4.50072863021415       -2.17437702351299        0.42892288148130
O           -5.07942052320488       -3.39352089302261        0.43937729579544
C           -4.63094766433148       -4.35160247085649        1.36846948408436
C           -3.44557666671974       -1.77062139730936        1.22817180177336
C           -2.93021643012179       -0.48236329870796        1.13578739437993
C           -2.41458817661777        2.08828941056363       -1.30818205431748
C           -1.45015504037203        0.98576110094171       -1.77931583834804
C           -0.16502741847862        1.01865475692725       -1.05010384919136
N            0.46937517604964       -0.03300825132595       -0.53433806868136
C            1.84544731609826        0.09270720498429       -0.11722250555324
C            2.81485145907817       -0.31793043838205       -1.24410356168485
C            4.23884984639375       -0.09335817127352       -0.82213271774604
C            4.85279360381371        1.12998075115091       -1.02837777356800
C            6.16434525364363        1.34163861422502       -0.63045852227891
C            6.88620948456315        0.33210895892158       -0.01218091751707
O            8.16515872735363        0.42318658026340        0.40624877494993
C            8.87322717145354        1.62027219966169        0.18390812041206
C            6.26131643190709       -0.92358911449710        0.21302749053051
O            7.03395326012973       -1.85026667605428        0.82024659001898
C            6.51152484757706       -3.13729247104053        1.04394226736827
C            4.95044284090668       -1.11217132454770       -0.19228922162158
C           -0.06771862897216       -1.36899680595376       -0.61819356046830
C           -4.20254646690952        2.88256115395752        0.45190765486709
C           -4.72133561238798        2.64965858454171        1.77274366753797
C           -3.82440258456742        4.34020285497962        0.22217058895844
H           -4.93396777435575        0.72072503921057       -1.28503853291155
H           -7.10779690535618       -0.00985729153279       -1.75090040145072
H           -7.40689672656941       -1.47976304874650       -2.70800491628748
H           -5.92039316384915       -0.54063874002161       -2.98066910380285
H           -4.75665932323022       -4.00172761222523        2.39792091027317
H           -5.25430441131142       -5.22908335614216        1.20758096858109
H           -3.58239144626137       -4.61717331862318        1.19792821904711
H           -3.00686104841005       -2.45358038279080        1.93754421348489
H           -2.09143246437977       -0.22791570448964        1.76409068414187
H           -3.26098770360317        2.11737218907436       -1.99247598747529
H           -1.90271668745016        3.04854324194242       -1.36537006700427
H           -1.93588117928417        0.01536223286346       -1.69863533541273
H           -1.24639196952824        1.16792749141019       -2.84263684458863
H           -1.08998409776853        2.87017605378223        0.83771261842063
H            0.35409083285679        1.96197379269702       -0.99355502877345
H            2.01563730352769       -0.53742432896550        0.75917529713639
H            2.04504287558402        1.12888597308747        0.16258668470433
H            2.59016554212755        0.28133960797299       -2.12845307277478
H            2.65929998621909       -1.36898134315879       -1.49027429465149
H            4.31636107946309        1.92865275931633       -1.51813265937527
H            6.61894839541667        2.30115233381858       -0.81477816250440
H            8.41462885956351        2.46218097475459        0.71184444365212
H            8.94299356378622        1.85223176426859       -0.88327382438888
H            9.87151293517178        1.44690053037773        0.58113333391094
H            7.31522239944634       -3.70153020555611        1.51300113394454
H            5.64903675664907       -3.10984254725943        1.71811199446828
H            6.22766813398379       -3.62453914537615        0.10573324052672
H            4.46985009899624       -2.06534193952376       -0.03640911984605
H           -0.05234619463263       -1.74360178698857       -1.64500413986993
H           -1.09629306473852       -1.38637445867077       -0.25443227166716
H            0.52966682894807       -2.03239820388525        0.00276337820512
H           -4.91272419717143        2.55914541484558       -0.31145197561527
H           -2.78205581116683        1.77575961756646        2.64309908160122
H           -5.20511498942251        1.72307055998985        2.01479219732890
H           -4.64590708567228        3.39638972839936        2.53791973929770
H           -3.06782891405622        4.66809097412994        0.93008886381812
H           -3.46328552279657        4.51379060157102       -0.78668086309802
H           -4.70914314407768        4.95612097867592        0.36689578809676
H           -1.61344500666845        2.61900960718152        3.06082128547835

          :  Hamiltonian                  GFN2-xTB          :
         :: total energy            -103.605541595775 Eh    ::
         :: gradient norm              0.003388009583 Eh/a0 ::
         :: HOMO-LUMO gap              0.859823117023 eV    ::
         :: SCC energy              -100.755026116947 Eh    ::
         :: -> dispersion             -0.075587998382 Eh    ::
         :: repulsion energy           1.595821144064 Eh    ::

    * Orbital Energies and Occupations

         #    Occupation            Energy/Eh            Energy/eV
      -------------------------------------------------------------
         1        2.0000           -0.8017459             -21.8166
       ...           ...                  ...                  ...
        78        1.9994           -0.5306858             -14.4407
        79        1.9993           -0.5272823             -14.3481
        80        1.9991           -0.5234919             -14.2449
        81        1.9991           -0.5222141             -14.2102
        82        1.9990           -0.5220931             -14.2069
        83        1.9988           -0.5186323             -14.1127
        84        1.9984           -0.5139566             -13.9855
        85        1.9980           -0.5102055             -13.8834
        86        1.9903           -0.4853409             -13.2068
        87        1.9846           -0.4779637             -13.0061
        88        1.9337           -0.4544591             -12.3665
        89        1.8888           -0.4459053             -12.1337
        90        1.4651           -0.4170072             -11.3473 (HOMO)
        91        0.5426           -0.3854093             -10.4875 (LUMO)
        92        0.1874           -0.3651250              -9.9356
        93        0.0069           -0.3112986              -8.4709
        94        0.0058           -0.3085654              -8.3965
        95        0.0038           -0.3017371              -8.2107
        96        0.0032           -0.2992032              -8.1417
        97        0.0000           -0.1870355              -5.0895
        98        0.0000           -0.1764020              -4.8001
        99                         -0.1234006              -3.3579
       100                         -0.1146947              -3.1210
       101                         -0.0616074              -1.6764
       ...                                ...                  ...
       171                          1.2614596              34.3261
      -------------------------------------------------------------
                  HL-Gap            0.0315979 Eh            0.8598 eV

     #   Z          covCN         q      C6AA      α(0)
     1   7 N        2.637    -0.226    25.950     7.566
     2   6 C        2.831    -0.002    28.077     8.683
     3   6 C        3.876     0.007    20.416     6.425
     4   6 C        2.969    -0.004    28.113     8.697
     5   6 C        2.922    -0.081    30.029     8.986
     6   6 C        2.862     0.128    25.188     8.226
     7   8 O        1.706    -0.236    17.906     5.713
     8   6 C        3.644     0.030    20.410     6.494
     9   6 C        2.865     0.127    25.211     8.230
    10   8 O        1.706    -0.234    17.886     5.710
    11   6 C        3.646     0.029    20.420     6.494
    12   6 C        2.914    -0.078    29.957     8.975
    13   6 C        2.922    -0.063    29.573     8.918
    14   6 C        3.811    -0.068    21.794     6.645
    15   6 C        3.803    -0.068    21.802     6.648
    16   6 C        2.845    -0.008    28.220     8.706
    17   7 N        2.729     0.008    21.118     6.825
    18   6 C        3.757    -0.018    20.946     6.525
    19   6 C        3.808    -0.070    21.835     6.652
    20   6 C        2.969    -0.003    28.088     8.693
    21   6 C        2.922    -0.051    29.267     8.872
    22   6 C        2.914    -0.069    29.724     8.940
    23   6 C        2.865     0.131    25.134     8.218
    24   8 O        1.706    -0.229    17.798     5.696
    25   6 C        3.645     0.027    20.449     6.499
    26   6 C        2.863     0.131    25.137     8.218
    27   8 O        1.706    -0.231    17.834     5.702
    28   6 C        3.645     0.029    20.417     6.494
    29   6 C        2.920    -0.081    30.018     8.985
    30   6 C        3.700    -0.072    22.047     6.715
    31   6 C        3.821    -0.008    20.705     6.476
    32   6 C        2.840    -0.123    31.120     9.142
    33   6 C        3.757    -0.115    22.754     6.801
    34   1 H        0.926     0.046     2.364     2.404
    35   1 H        0.924     0.049     2.332     2.388
    36   1 H        0.925     0.079     1.992     2.207
    37   1 H        0.924     0.045     2.384     2.415
    38   1 H        0.924     0.050     2.314     2.379
    39   1 H        0.925     0.079     1.993     2.207
    40   1 H        0.924     0.046     2.377     2.411
    41   1 H        0.926     0.047     2.363     2.404
    42   1 H        0.926     0.036     2.502     2.474
    43   1 H        0.925     0.058     2.227     2.334
    44   1 H        0.925     0.053     2.280     2.361
    45   1 H        0.925     0.064     2.155     2.295
    46   1 H        0.924     0.075     2.031     2.229
    47   1 H        0.926     0.048     2.342     2.393
    48   1 H        0.926     0.061     2.189     2.313
    49   1 H        0.924     0.065     2.143     2.289
    50   1 H        0.924     0.066     2.135     2.285
    51   1 H        0.924     0.052     2.292     2.368
    52   1 H        0.924     0.053     2.277     2.360
    53   1 H        0.926     0.041     2.437     2.441
    54   1 H        0.926     0.054     2.265     2.353
    55   1 H        0.924     0.051     2.312     2.378
    56   1 H        0.924     0.052     2.289     2.366
    57   1 H        0.925     0.079     1.989     2.206
    58   1 H        0.925     0.079     1.993     2.208
    59   1 H        0.924     0.046     2.376     2.411
    60   1 H        0.924     0.050     2.326     2.385
    61   1 H        0.926     0.044     2.391     2.418
    62   1 H        0.924     0.072     2.061     2.245
    63   1 H        0.924     0.081     1.969     2.195
    64   1 H        0.925     0.076     2.023     2.224
    65   1 H        0.924     0.067     2.121     2.277
    66   1 H        0.864     0.229     0.968     1.541
    67   1 H        0.926     0.032     2.560     2.502
    68   1 H        0.926     0.042     2.420     2.433
    69   1 H        0.925     0.042     2.425     2.435
    70   1 H        0.925     0.042     2.418     2.431
    71   1 H        0.925     0.057     2.235     2.338
    72   1 H        0.860     0.186     1.182     1.703

Wiberg/Mayer (AO) data.
largest (>0.10) Wiberg bond orders for each atom

     #   Z sym  total        # sym  WBO       # sym  WBO       # sym  WBO
 ---------------------------------------------------------------------------
     1   7 N    3.316 --     2 C    1.289    72 H    0.947    66 H    0.930
     2   6 C    3.593 --     1 N    1.289     3 C    1.131    47 H    0.967
                            32 C    0.128
     3   6 C    3.935 --     2 C    1.131    14 C    0.981     4 C    0.979
                            31 C    0.734
     4   6 C    3.954 --    13 C    1.422     5 C    1.364     3 C    0.979
     5   6 C    3.967 --     6 C    1.409     4 C    1.364    34 H    0.955
     6   6 C    3.918 --     5 C    1.409     9 C    1.228     7 O    1.093
     7   8 O    2.259 --     6 C    1.093     8 C    0.980
     8   6 C    3.936 --     7 O    0.980    36 H    0.977    37 H    0.975
                            35 H    0.974
     9   6 C    3.915 --    12 C    1.400     6 C    1.228    10 O    1.095
    10   8 O    2.258 --     9 C    1.095    11 C    0.979
    11   6 C    3.935 --    10 O    0.979    39 H    0.977    38 H    0.975
                            40 H    0.975
    12   6 C    3.969 --     9 C    1.400    13 C    1.395    41 H    0.965
    13   6 C    3.965 --     4 C    1.422    12 C    1.395    42 H    0.965
    14   6 C    3.972 --     3 C    0.981    15 C    0.979    44 H    0.971
                            43 H    0.971
    15   6 C    3.987 --    16 C    1.059    14 C    0.979    45 H    0.963
                            46 H    0.931
    16   6 C    3.520 --    17 N    1.379    15 C    1.059    48 H    0.959
    17   7 N    3.438 --    16 C    1.379    30 C    1.000    18 C    0.990
    18   6 C    3.957 --    17 N    0.990    50 H    0.968    49 H    0.966
                            19 C    0.965
    19   6 C    3.975 --    20 C    1.008    52 H    0.972    51 H    0.972
                            18 C    0.965
    20   6 C    3.954 --    21 C    1.416    29 C    1.376    19 C    1.008
    21   6 C    3.958 --    20 C    1.416    22 C    1.413    53 H    0.969
    22   6 C    3.965 --    21 C    1.413    23 C    1.390    54 H    0.964
    23   6 C    3.905 --    22 C    1.390    26 C    1.228    24 O    1.101
    24   8 O    2.254 --    23 C    1.101    25 C    0.978
    25   6 C    3.932 --    24 O    0.978    57 H    0.977    56 H    0.974
                            55 H    0.974
    26   6 C    3.908 --    29 C    1.401    23 C    1.228    27 O    1.095
    27   8 O    2.253 --    26 C    1.095    28 C    0.981
    28   6 C    3.936 --    27 O    0.981    58 H    0.977    59 H    0.974
                            60 H    0.974
    29   6 C    3.964 --    26 C    1.401    20 C    1.376    61 H    0.963
    30   6 C    3.959 --    17 N    1.000    64 H    0.978    62 H    0.966
                            63 H    0.959
    31   6 C    3.952 --    32 C    1.211    33 C    1.012    65 H    0.923
                             3 C    0.734
    32   6 C    3.420 --    31 C    1.211    67 H    0.982    68 H    0.981
                             2 C    0.128
    33   6 C    3.991 --    31 C    1.012    69 H    0.985    70 H    0.983
                            71 H    0.979
    34   1 H    0.997 --     5 C    0.955
    35   1 H    0.995 --     8 C    0.974
    36   1 H    0.993 --     8 C    0.977
    37   1 H    0.996 --     8 C    0.975
    38   1 H    0.995 --    11 C    0.975
    39   1 H    0.993 --    11 C    0.977
    40   1 H    0.995 --    11 C    0.975
    41   1 H    0.996 --    12 C    0.965
    42   1 H    0.998 --    13 C    0.965
    43   1 H    0.995 --    14 C    0.971
    44   1 H    0.996 --    14 C    0.971
    45   1 H    0.995 --    15 C    0.963
    46   1 H    0.967 --    15 C    0.931
    47   1 H    0.995 --     2 C    0.967
    48   1 H    0.996 --    16 C    0.959
    49   1 H    0.992 --    18 C    0.966
    50   1 H    0.994 --    18 C    0.968
    51   1 H    0.996 --    19 C    0.972
    52   1 H    0.996 --    19 C    0.972
    53   1 H    0.998 --    21 C    0.969
    54   1 H    0.996 --    22 C    0.964
    55   1 H    0.994 --    25 C    0.974
    56   1 H    0.993 --    25 C    0.974
    57   1 H    0.993 --    25 C    0.977
    58   1 H    0.993 --    28 C    0.977
    59   1 H    0.995 --    28 C    0.974
    60   1 H    0.994 --    28 C    0.974
    61   1 H    0.997 --    29 C    0.963
    62   1 H    0.983 --    30 C    0.966
    63   1 H    0.987 --    30 C    0.959
    64   1 H    0.994 --    30 C    0.978
    65   1 H    0.974 --    31 C    0.923
    66   1 H    0.947 --     1 N    0.930
    67   1 H    0.999 --    32 C    0.982
    68   1 H    0.998 --    32 C    0.981
    69   1 H    0.998 --    33 C    0.985
    70   1 H    0.997 --    33 C    0.983
    71   1 H    0.995 --    33 C    0.979
    72   1 H    0.963 --     1 N    0.947
 ---------------------------------------------------------------------------

molecular dipole:
                 x           y           z       tot (Debye)
 q only:       -0.145       0.839       0.179
   full:       -0.241       1.071       0.204       2.837

           -------------------------------------------------
          | TOTAL ENERGY             -103.605541595775 Eh   |
          | GRADIENT NORM               0.003388009583 Eh/α |
          | HOMO-LUMO GAP               0.859823117023 eV   |
           -------------------------------------------------

 * finished run on 2024/04/06 at 11:15:27.830
