   * xtb version 6.6.1 (8d0f1dd) compiled by 'conda@1efc2f54142f' on 2023-08-01
          program call               : xtb xtbopt.xyz --opt crude --input .xc2 --gfn2

   ID    Z sym.   atoms
    1    7 N      1, 17
    2    6 C      2-6, 8, 9, 11-16, 18-23, 25, 26, 28-33
    3    8 O      7, 10, 24, 27
    4    1 H      34-72
########################################################################
[WARNING] Please study the warnings concerning your input carefully
-1- readin_getIntValue: could not parse ''
########################################################################

          :  Hamiltonian                  GFN2-xTB          :
 * total energy  :   -99.1579246 Eh     change       -0.4860112E-11 Eh
 * total energy  :   -99.3402771 Eh     change       -0.1823526E+00 Eh
 * total energy  :   -99.3420508 Eh     change       -0.1773648E-02 Eh
 * total energy  :   -99.3427437 Eh     change       -0.6928826E-03 Eh
 * total energy  :   -99.3440693 Eh     change       -0.1325620E-02 Eh
 * total energy  :   -99.3469877 Eh     change       -0.2918430E-02 Eh
 * total energy  :   -99.3535201 Eh     change       -0.6532409E-02 Eh
 * total energy  :   -99.3594005 Eh     change       -0.5880384E-02 Eh
 * total energy  :   -99.3530699 Eh     change        0.6330568E-02 Eh
 * total energy  :   -99.3800212 Eh     change       -0.2695124E-01 Eh
 * total energy  :   -99.4003071 Eh     change       -0.5603034E-03 Eh
 * total energy  :   -99.4019238 Eh     change       -0.1616636E-02 Eh
 * total energy  :   -99.4026080 Eh     change       -0.6842120E-03 Eh
 * total energy  :   -99.4033663 Eh     change       -0.7583044E-03 Eh
 * total energy  :   -99.4040196 Eh     change       -0.6533177E-03 Eh
 * total energy  :   -99.4046661 Eh     change       -0.6465027E-03 Eh
 * total energy  :   -99.4054370 Eh     change       -0.7709202E-03 Eh
 * total energy  :   -99.4060485 Eh     change       -0.6114831E-03 Eh
 * total energy  :   -99.4064352 Eh     change       -0.3866823E-03 Eh
   *** GEOMETRY OPTIMIZATION CONVERGED AFTER 24 ITERATIONS ***

 final structure:
================
72
 xtb: 6.6.1 (8d0f1dd)
N           -1.74146286541358        1.83028575048025        2.30751711753835
C           -1.76231565123652        2.16057169405157        1.09644597314262
C           -2.90975578376411        1.83897901953481        0.17258283685959
C           -3.47485444053173        0.42878617442610        0.31711317626151
C           -4.50349612565409        0.03175603186850       -0.54379848652727
C           -5.03608795489728       -1.24604281039605       -0.50718874456117
O           -6.02914641723459       -1.70275430135694       -1.29933490988114
C           -6.66884544959956       -0.81906569889049       -2.18892978470319
C           -4.52166109153733       -2.19383604515334        0.41810731254039
O           -5.08302855151834       -3.41881053318107        0.36969415001680
C           -4.67307150474140       -4.39601068840591        1.29743623881475
C           -3.50931891264608       -1.79286849648049        1.27473323194732
C           -2.99742049721318       -0.50162315252270        1.22640356711003
C           -2.42625529372583        2.03398476961289       -1.28179593978758
C           -1.48519101810287        0.91692053315928       -1.76576706477659
C           -0.15904069068530        0.96403101741380       -1.11790769811521
N            0.47345282288408       -0.05857623700843       -0.56502071174732
C            1.84888680570277        0.08389744246421       -0.14713717307379
C            2.82575198823697       -0.33376680085611       -1.26471498157835
C            4.24606657021358       -0.09380657023932       -0.83487432296811
C            4.84339331710853        1.14097734212007       -1.03111757193867
C            6.14835610760085        1.37149485938482       -0.62411854454928
C            6.88318738243330        0.36928804612509       -0.00720002902130
O            8.15454690207820        0.47758200660099        0.42035170647198
C            8.84693286358524        1.68876222514390        0.22258421450012
C            6.27678811302577       -0.89989533237445        0.20438602329563
O            7.06131726208272       -1.81648056934132        0.80491040855682
C            6.56131093816978       -3.11387384267101        1.02446871970211
C            4.97003214467852       -1.10561370414422       -0.20878408531709
C           -0.09060508998285       -1.38648279342643       -0.54277330720618
C           -4.05601295226434        2.86275177852327        0.48387036438608
C           -4.62551024804845        2.65941690255290        1.88894892064145
C           -3.62671061928085        4.31772060637321        0.28551740326885
H           -4.90545433364272        0.73274093735990       -1.25655480219454
H           -7.11674585313471        0.02737207509246       -1.66000591628065
H           -7.45514975655633       -1.40155816581553       -2.66529404526385
H           -5.98026909048835       -0.45082103371342       -2.95659674719553
H           -4.82961240281828       -4.06240967805197        2.32721567967536
H           -5.29707684431782       -5.26601977809128        1.10144115610412
H           -3.62126249847378       -4.66649008274627        1.15595530916792
H           -3.10893613729897       -2.48275091453106        1.99981235685940
H           -2.23885034725785       -0.21948543653626        1.93684252545857
H           -3.28742610938635        2.06690955257046       -1.94753662660216
H           -1.90918633867963        2.98991852835187       -1.36587097648975
H           -1.96834596392217       -0.04908089972606       -1.63430325675196
H           -1.33376051642253        1.07479363223780       -2.84126216984450
H           -0.97445968934421        2.77785314854894        0.62730141205412
H            0.37979924117491        1.89935703882698       -1.14819138286639
H            2.01987224954229       -0.53277430823924        0.73764676464152
H            2.04120442483677        1.12505973621371        0.11929682595030
H            2.60527675979824        0.25473561531081       -2.15745188607087
H            2.67837393711070       -1.38796626584407       -1.50233838766002
H            4.29796576508431        1.93424628736468       -1.51971439333455
H            6.58908103830031        2.33920594914120       -0.79916459162282
H            8.36870948748519        2.51593483564120        0.75591317699294
H            8.92563294787017        1.93539955393099       -0.84043489573320
H            9.84281234968955        1.52500456133895        0.62969234900635
H            7.37402391615696       -3.66539722028433        1.49319082112013
H            5.69775232292936       -3.10261962669978        1.69728922997661
H            6.28795814750126       -3.60273079162740        0.08410604492152
H            4.50426682198727       -2.06722894336374       -0.06191405676105
H           -0.17142055915637       -1.79622009284441       -1.55212802869806
H           -1.08358152061015       -1.37026354396243       -0.08843564675921
H            0.54890496294760       -2.03848261180810        0.04654614113777
H           -4.86087096143540        2.65785375899314       -0.22896874978700
H           -3.86711294175449        2.80740658962098        2.65517694239216
H           -5.02712080445691        1.65610828395774        1.99685793698035
H           -5.42457639570737        3.38286454422030        2.06090163657697
H           -2.77960454886787        4.57254926651840        0.91604990406109
H           -3.36951371159310        4.52063657479539       -0.75131140232432
H           -4.45007252213993        4.97543629964054        0.55135147717521
H           -0.95494098767249        2.15735352331339        2.87154710529361

          :  Hamiltonian                  GFN2-xTB          :
         :: total energy             -99.406435177993 Eh    ::
         :: gradient norm              0.009064478494 Eh/a0 ::
         :: HOMO-LUMO gap              1.640480918136 eV    ::
         :: SCC energy              -100.781527432218 Eh    ::
         :: -> dispersion             -0.075211262977 Eh    ::
         :: repulsion energy           1.373816981377 Eh    ::

    * Orbital Energies and Occupations

         #    Occupation            Energy/Eh            Energy/eV
      -------------------------------------------------------------
         1        2.0000           -0.8064299             -21.9441
       ...           ...                  ...                  ...
        78        1.9987           -0.5324870             -14.4897
        79        1.9984           -0.5295640             -14.4102
        80        1.9983           -0.5280651             -14.3694
        81        1.9973           -0.5210918             -14.1796
        82        1.9971           -0.5196671             -14.1409
        83        1.9966           -0.5173883             -14.0789
        84        1.9960           -0.5146423             -14.0041
        85        1.9946           -0.5098445             -13.8736
        86        1.9788           -0.4880348             -13.2801
        87        1.9769           -0.4867207             -13.2443
        88        1.9390           -0.4710214             -12.8171
        89        1.8490           -0.4559119             -12.4060
        90        1.8451           -0.4554740             -12.3941 (HOMO)
        91        0.4184           -0.3951874             -10.7536 (LUMO)
        92        0.0134           -0.3370784              -9.1724
        93        0.0029           -0.3129738              -8.5165
        94        0.0027           -0.3119178              -8.4877
        95        0.0024           -0.3097192              -8.4279
        96        0.0023           -0.3088008              -8.4029
        97        0.0000           -0.1871887              -5.0937
        98        0.0000           -0.1868353              -5.0840
        99                         -0.1329768              -3.6185
       100                         -0.0739253              -2.0116
       101                         -0.0626608              -1.7051
       ...                                ...                  ...
       171                          0.5770971              15.7036
      -------------------------------------------------------------
                  HL-Gap            0.0602866 Eh            1.6405 eV

     #   Z          covCN         q      C6AA      α(0)
     1   7 N        1.774    -0.285    28.194     7.863
     2   6 C        2.823     0.097    25.845     8.330
     3   6 C        3.906     0.006    20.425     6.424
     4   6 C        2.968     0.008    27.841     8.655
     5   6 C        2.922    -0.080    29.993     8.981
     6   6 C        2.861     0.129    25.164     8.222
     7   8 O        1.706    -0.230    17.809     5.698
     8   6 C        3.644     0.028    20.443     6.499
     9   6 C        2.863     0.129    25.172     8.224
    10   8 O        1.706    -0.228    17.775     5.692
    11   6 C        3.645     0.027    20.460     6.501
    12   6 C        2.914    -0.074    29.859     8.960
    13   6 C        2.921    -0.055    29.370     8.887
    14   6 C        3.811    -0.068    21.787     6.644
    15   6 C        3.803    -0.069    21.817     6.650
    16   6 C        2.847     0.006    27.889     8.655
    17   7 N        2.729     0.020    20.898     6.789
    18   6 C        3.757    -0.019    20.959     6.527
    19   6 C        3.808    -0.070    21.837     6.652
    20   6 C        2.968    -0.000    28.033     8.685
    21   6 C        2.922    -0.049    29.213     8.863
    22   6 C        2.914    -0.068    29.682     8.934
    23   6 C        2.865     0.134    25.078     8.209
    24   8 O        1.706    -0.222    17.680     5.677
    25   6 C        3.645     0.025    20.489     6.506
    26   6 C        2.863     0.133    25.084     8.209
    27   8 O        1.706    -0.224    17.722     5.684
    28   6 C        3.645     0.027    20.456     6.501
    29   6 C        2.919    -0.079    29.984     8.980
    30   6 C        3.700    -0.075    22.097     6.722
    31   6 C        3.855    -0.008    20.689     6.469
    32   6 C        3.753    -0.115    22.762     6.803
    33   6 C        3.753    -0.112    22.700     6.794
    34   1 H        0.926     0.050     2.326     2.385
    35   1 H        0.924     0.053     2.281     2.362
    36   1 H        0.925     0.081     1.971     2.196
    37   1 H        0.924     0.047     2.354     2.399
    38   1 H        0.924     0.056     2.252     2.347
    39   1 H        0.925     0.081     1.970     2.195
    40   1 H        0.924     0.048     2.343     2.394
    41   1 H        0.926     0.052     2.297     2.370
    42   1 H        0.926     0.067     2.123     2.278
    43   1 H        0.925     0.056     2.249     2.345
    44   1 H        0.925     0.053     2.287     2.365
    45   1 H        0.925     0.065     2.141     2.288
    46   1 H        0.924     0.080     1.977     2.199
    47   1 H        0.922     0.005     2.973     2.696
    48   1 H        0.926     0.069     2.096     2.264
    49   1 H        0.924     0.070     2.081     2.256
    50   1 H        0.924     0.069     2.100     2.266
    51   1 H        0.924     0.054     2.265     2.354
    52   1 H        0.924     0.056     2.250     2.346
    53   1 H        0.926     0.044     2.392     2.419
    54   1 H        0.926     0.058     2.218     2.329
    55   1 H        0.924     0.054     2.267     2.355
    56   1 H        0.924     0.056     2.249     2.345
    57   1 H        0.925     0.082     1.954     2.186
    58   1 H        0.925     0.082     1.959     2.189
    59   1 H        0.924     0.049     2.331     2.387
    60   1 H        0.924     0.052     2.289     2.366
    61   1 H        0.926     0.048     2.348     2.396
    62   1 H        0.924     0.077     2.009     2.217
    63   1 H        0.924     0.086     1.922     2.168
    64   1 H        0.925     0.081     1.971     2.195
    65   1 H        0.924     0.043     2.405     2.425
    66   1 H        0.925     0.058     2.224     2.332
    67   1 H        0.925     0.046     2.373     2.409
    68   1 H        0.924     0.051     2.312     2.378
    69   1 H        0.925     0.039     2.469     2.457
    70   1 H        0.925     0.039     2.469     2.457
    71   1 H        0.925     0.054     2.267     2.355
    72   1 H        0.860     0.151     1.391     1.848

Wiberg/Mayer (AO) data.
largest (>0.10) Wiberg bond orders for each atom

     #   Z sym  total        # sym  WBO       # sym  WBO       # sym  WBO
 ---------------------------------------------------------------------------
     1   7 N    3.008 --     2 C    1.930    72 H    0.944
     2   6 C    3.937 --     1 N    1.930     3 C    1.003    47 H    0.930
     3   6 C    3.979 --     2 C    1.003     4 C    0.975    14 C    0.974
                            31 C    0.917
     4   6 C    3.943 --    13 C    1.414     5 C    1.368     3 C    0.975
     5   6 C    3.959 --     6 C    1.402     4 C    1.368    34 H    0.956
     6   6 C    3.899 --     5 C    1.402     9 C    1.220     7 O    1.098
     7   8 O    2.249 --     6 C    1.098     8 C    0.979
     8   6 C    3.932 --     7 O    0.979    36 H    0.977    35 H    0.973
                            37 H    0.973
     9   6 C    3.896 --    12 C    1.391     6 C    1.220    10 O    1.102
    10   8 O    2.249 --     9 C    1.102    11 C    0.978
    11   6 C    3.931 --    10 O    0.978    39 H    0.977    40 H    0.973
                            38 H    0.973
    12   6 C    3.959 --    13 C    1.402     9 C    1.391    41 H    0.964
    13   6 C    3.944 --     4 C    1.414    12 C    1.402    42 H    0.953
    14   6 C    3.970 --    15 C    0.977     3 C    0.974    43 H    0.970
                            44 H    0.970
    15   6 C    3.987 --    16 C    1.064    14 C    0.977    45 H    0.963
                            46 H    0.928
    16   6 C    3.576 --    17 N    1.423    15 C    1.064    48 H    0.957
    17   7 N    3.483 --    16 C    1.423    30 C    0.998    18 C    0.987
    18   6 C    3.954 --    17 N    0.987    50 H    0.967    19 C    0.965
                            49 H    0.965
    19   6 C    3.976 --    20 C    1.008    52 H    0.972    51 H    0.971
                            18 C    0.965
    20   6 C    3.945 --    21 C    1.409    29 C    1.380    19 C    1.008
    21   6 C    3.950 --    22 C    1.417    20 C    1.409    53 H    0.968
    22   6 C    3.960 --    21 C    1.417    23 C    1.383    54 H    0.963
    23   6 C    3.895 --    22 C    1.383    26 C    1.219    24 O    1.110
    24   8 O    2.255 --    23 C    1.110    25 C    0.976
    25   6 C    3.928 --    57 H    0.977    24 O    0.976    56 H    0.973
                            55 H    0.973
    26   6 C    3.899 --    29 C    1.395    23 C    1.219    27 O    1.104
    27   8 O    2.255 --    26 C    1.104    28 C    0.978
    28   6 C    3.932 --    27 O    0.978    58 H    0.977    59 H    0.973
                            60 H    0.973
    29   6 C    3.959 --    26 C    1.395    20 C    1.380    61 H    0.962
    30   6 C    3.955 --    17 N    0.998    64 H    0.977    62 H    0.965
                            63 H    0.956
    31   6 C    3.978 --    32 C    1.011    33 C    1.008    65 H    0.958
                             3 C    0.917
    32   6 C    3.985 --    31 C    1.011    67 H    0.982    68 H    0.980
                            66 H    0.976
    33   6 C    3.990 --    31 C    1.008    69 H    0.984    70 H    0.983
                            71 H    0.981
    34   1 H    0.996 --     5 C    0.956
    35   1 H    0.993 --     8 C    0.973
    36   1 H    0.993 --     8 C    0.977
    37   1 H    0.993 --     8 C    0.973
    38   1 H    0.992 --    11 C    0.973
    39   1 H    0.993 --    11 C    0.977
    40   1 H    0.993 --    11 C    0.973
    41   1 H    0.995 --    12 C    0.964
    42   1 H    0.994 --    13 C    0.953
    43   1 H    0.995 --    14 C    0.970
    44   1 H    0.996 --    14 C    0.970
    45   1 H    0.995 --    15 C    0.963
    46   1 H    0.970 --    15 C    0.928
    47   1 H    0.986 --     2 C    0.930
    48   1 H    0.995 --    16 C    0.957
    49   1 H    0.991 --    18 C    0.965
    50   1 H    0.994 --    18 C    0.967
    51   1 H    0.996 --    19 C    0.971
    52   1 H    0.996 --    19 C    0.972
    53   1 H    0.997 --    21 C    0.968
    54   1 H    0.995 --    22 C    0.963
    55   1 H    0.992 --    25 C    0.973
    56   1 H    0.992 --    25 C    0.973
    57   1 H    0.992 --    25 C    0.977
    58   1 H    0.993 --    28 C    0.977
    59   1 H    0.993 --    28 C    0.973
    60   1 H    0.993 --    28 C    0.973
    61   1 H    0.996 --    29 C    0.962
    62   1 H    0.984 --    30 C    0.965
    63   1 H    0.986 --    30 C    0.956
    64   1 H    0.993 --    30 C    0.977
    65   1 H    0.995 --    31 C    0.958
    66   1 H    0.994 --    32 C    0.976
    67   1 H    0.996 --    32 C    0.982
    68   1 H    0.995 --    32 C    0.980
    69   1 H    0.997 --    33 C    0.984
    70   1 H    0.998 --    33 C    0.983
    71   1 H    0.995 --    33 C    0.981
    72   1 H    0.972 --     1 N    0.944
 ---------------------------------------------------------------------------

molecular dipole:
                 x           y           z       tot (Debye)
 q only:        0.623      -0.087      -0.813
   full:        0.844       0.303      -1.043       3.495

           -------------------------------------------------
          | TOTAL ENERGY              -99.406435177993 Eh   |
          | GRADIENT NORM               0.009064478494 Eh/α |
          | HOMO-LUMO GAP               1.640480918136 eV   |
           -------------------------------------------------

 * finished run on 2024/04/06 at 11:15:32.164
