   * xtb version 6.6.1 (8d0f1dd) compiled by 'conda@1efc2f54142f' on 2023-08-01
          program call               : xtb xtbopt.xyz --opt crude --input .xc2 --gfn2

   ID    Z sym.   atoms
    1    6 C      1, 3, 5-7, 10, 11, 14
    2    7 N      2, 4, 9, 13
    3    8 O      8, 12
    4    1 H      15-25
########################################################################
[WARNING] Please study the warnings concerning your input carefully
-1- readin_getIntValue: could not parse ''
########################################################################

          :  Hamiltonian                  GFN2-xTB          :
 * total energy  :   -41.0858246 Eh     change       -0.1250555E-11 Eh
 * total energy  :   -42.0837112 Eh     change       -0.9978866E+00 Eh
 * total energy  :   -42.1016349 Eh     change       -0.1792374E-01 Eh
 * total energy  :   -42.1067651 Eh     change       -0.5130188E-02 Eh
 * total energy  :   -42.1080692 Eh     change       -0.1304043E-02 Eh
 * total energy  :   -42.1087115 Eh     change       -0.6422911E-03 Eh
 * total energy  :   -42.1093164 Eh     change       -0.6048907E-03 Eh
 * total energy  :   -42.1103330 Eh     change       -0.1016662E-02 Eh
 * total energy  :   -42.1123424 Eh     change       -0.2009398E-02 Eh
 * total energy  :   -42.1186694 Eh     change       -0.6326988E-02 Eh
 * total energy  :   -42.1361057 Eh     change       -0.1552707E-02 Eh
 * total energy  :   -42.1370133 Eh     change       -0.9076365E-03 Eh
 * total energy  :   -42.1384458 Eh     change       -0.1432533E-02 Eh
 * total energy  :   -42.1407622 Eh     change       -0.2316386E-02 Eh
 * total energy  :   -42.1473876 Eh     change       -0.6625374E-02 Eh
 * total energy  :   -42.1507971 Eh     change       -0.3409522E-02 Eh
 * total energy  :   -42.1516906 Eh     change       -0.8935141E-03 Eh
 * total energy  :   -42.1522906 Eh     change       -0.5999260E-03 Eh
 * total energy  :   -42.1525223 Eh     change       -0.2317872E-03 Eh
   *** GEOMETRY OPTIMIZATION CONVERGED AFTER 26 ITERATIONS ***

 final structure:
================
25
 xtb: 6.6.1 (8d0f1dd)
C            2.96399184232519        1.79558076786460        0.05833256704147
N            2.34938906881625        0.70434290361366       -0.09702324857026
C            2.71493968146681       -2.03237063101825       -0.17072960351661
N            1.41597448220881       -1.97268074724257        0.03631460827829
C            0.57530082922529       -0.88340401394005        0.01127049604573
C            1.02494609234334        0.43730029048197       -0.02378855608879
C            0.05002439849895        1.54178847603275       -0.01786273045929
O            0.38196671285780        2.70683469698310       -0.01536808221212
N           -1.27603781984935        1.15796203105587       -0.00609624014986
C           -2.29787753034128        2.19549896746518       -0.01990815844033
C           -1.73851163009273       -0.13611533407406        0.02897040363915
O           -2.91003822717630       -0.39943919056208        0.04283757539197
N           -0.76554903470652       -1.15115004534887        0.04853169222163
C           -1.27603852112232       -2.51213229433170        0.06213491732063
H            3.26149292035024       -1.14019827682797       -0.41832422158454
H            4.02459279105625        1.81105572790870       -0.14828093753439
H            2.49086669722410        2.72325853362293        0.38566886318172
H            3.20419715804646       -2.98611771906681       -0.08946821455316
H           -1.80102702678697        3.16243236490558       -0.04441322803248
H           -2.93283605216495        2.07301994276097       -0.89730737554719
H           -2.92162085398306        2.11249266022258        0.87014748934062
H           -1.03515552400292       -3.01966960144660        0.99887298606218
H           -0.91639808669358       -3.07833755340456       -0.79832071812637
H           -2.36323544140810       -2.44150282444337       -0.00698571700537
H            0.93707458800750       -2.85021058961079        0.24196705119796

          :  Hamiltonian                  GFN2-xTB          :
         :: total energy             -42.152522348855 Eh    ::
         :: gradient norm              0.005115960447 Eh/a0 ::
         :: HOMO-LUMO gap              0.999843398023 eV    ::
         :: SCC energy               -42.685273827244 Eh    ::
         :: -> dispersion             -0.022496485447 Eh    ::
         :: repulsion energy           0.532630142575 Eh    ::

    * Orbital Energies and Occupations

         #    Occupation            Energy/Eh            Energy/eV
      -------------------------------------------------------------
         1        2.0000           -0.8872018             -24.1420
       ...           ...                  ...                  ...
        25        1.9999           -0.6686884             -18.1959
        26        1.9999           -0.6639262             -18.0664
        27        1.9999           -0.6602592             -17.9666
        28        1.9995           -0.6378851             -17.3577
        29        1.9994           -0.6348598             -17.2754
        30        1.9992           -0.6307009             -17.1622
        31        1.9984           -0.6205961             -16.8873
        32        1.9963           -0.6068520             -16.5133
        33        1.9914           -0.5934217             -16.1478
        34        1.9793           -0.5794437             -15.7675
        35        1.9587           -0.5683816             -15.4665
        36        1.9229           -0.5581851             -15.1890
        37        1.5909           -0.5287649             -14.3884 (HOMO)
        38        0.5528           -0.4920213             -13.3886 (LUMO)
        39        0.0090           -0.4218468             -11.4790
        40        0.0024           -0.4008003             -10.9063
        41        0.0003           -0.3653674              -9.9422
        42        0.0000           -0.2836581              -7.7187
        43                         -0.2019175              -5.4945
        44                         -0.1660493              -4.5184
        45                         -0.1348373              -3.6691
        46                         -0.1019444              -2.7740
        47                         -0.0806648              -2.1950
        48                         -0.0290649              -0.7909
       ...                                ...                  ...
        67                          0.5434750              14.7887
      -------------------------------------------------------------
                  HL-Gap            0.0367436 Eh            0.9998 eV

     #   Z          covCN         q      C6AA      α(0)
     1   6 C        2.785     0.029    27.345     8.566
     2   7 N        1.831    -0.109    24.142     7.281
     3   6 C        2.773    -0.034    28.831     8.794
     4   7 N        2.690    -0.004    21.336     6.860
     5   6 C        2.840     0.104    25.702     8.308
     6   6 C        2.909     0.020    27.566     8.609
     7   6 C        2.769     0.266    22.510     7.770
     8   8 O        0.859    -0.343    20.578     6.082
     9   7 N        2.740    -0.071    22.611     7.062
    10   6 C        3.708    -0.061    21.819     6.677
    11   6 C        2.723     0.319    21.581     7.605
    12   8 O        0.860    -0.357    20.843     6.121
    13   7 N        2.745    -0.062    22.437     7.035
    14   6 C        3.699    -0.080    22.206     6.739
    15   1 H        0.926     0.143     1.442     1.878
    16   1 H        0.926     0.117     1.636     2.000
    17   1 H        0.924     0.130     1.532     1.936
    18   1 H        0.926     0.126     1.567     1.958
    19   1 H        0.925     0.115     1.657     2.013
    20   1 H        0.925     0.104     1.746     2.066
    21   1 H        0.925     0.104     1.748     2.068
    22   1 H        0.924     0.085     1.928     2.171
    23   1 H        0.924     0.084     1.933     2.174
    24   1 H        0.924     0.138     1.477     1.901
    25   1 H        0.860     0.237     0.934     1.514

Wiberg/Mayer (AO) data.
largest (>0.10) Wiberg bond orders for each atom

     #   Z sym  total        # sym  WBO       # sym  WBO       # sym  WBO
 ---------------------------------------------------------------------------
     1   6 C    3.763 --     2 N    1.787    16 H    0.940    17 H    0.893
     2   7 N    3.095 --     1 C    1.787     6 C    1.204
     3   6 C    3.484 --     4 N    1.467    18 H    0.962    15 H    0.941
     4   7 N    3.591 --     3 C    1.467     5 C    1.142    25 H    0.891
     5   6 C    3.876 --     6 C    1.336    13 N    1.185     4 N    1.142
     6   6 C    3.806 --     5 C    1.336     2 N    1.204     7 C    1.019
     7   6 C    3.921 --     8 O    1.675     9 N    1.123     6 C    1.019
     8   8 O    1.994 --     7 C    1.675     9 N    0.129
     9   7 N    3.527 --     7 C    1.123    11 C    1.122    10 C    0.967
                             8 O    0.129    12 O    0.127
    10   6 C    3.896 --     9 N    0.967    19 H    0.967    21 H    0.958
                            20 H    0.958
    11   6 C    3.957 --    12 O    1.692     9 N    1.122    13 N    1.053
    12   8 O    2.028 --    11 C    1.692     9 N    0.127    13 N    0.119
    13   7 N    3.506 --     5 C    1.185    11 C    1.053    14 C    0.980
                            12 O    0.119
    14   6 C    3.922 --    13 N    0.980    23 H    0.966    22 H    0.962
                            24 H    0.953
    15   1 H    0.979 --     3 C    0.941
    16   1 H    0.961 --     1 C    0.940
    17   1 H    0.923 --     1 C    0.893
    18   1 H    0.981 --     3 C    0.962
    19   1 H    0.984 --    10 C    0.967
    20   1 H    0.978 --    10 C    0.958
    21   1 H    0.978 --    10 C    0.958
    22   1 H    0.984 --    14 C    0.962
    23   1 H    0.986 --    14 C    0.966
    24   1 H    0.980 --    14 C    0.953
    25   1 H    0.941 --     4 N    0.891
 ---------------------------------------------------------------------------

molecular dipole:
                 x           y           z       tot (Debye)
 q only:        2.151      -2.071       0.065
   full:        2.216      -2.143       0.136       7.843

           -------------------------------------------------
          | TOTAL ENERGY              -42.152522348855 Eh   |
          | GRADIENT NORM               0.005115960447 Eh/α |
          | HOMO-LUMO GAP               0.999843398023 eV   |
           -------------------------------------------------

 * finished run on 2024/06/05 at 20:00:22.384
