   * xtb version 6.6.1 (8d0f1dd) compiled by 'conda@1efc2f54142f' on 2023-08-01
          program call               : xtb struc.xyz --opt loose --input .xc1 --gfn2

   ID    Z sym.   atoms
    1    7 N      1, 17
    2    6 C      2-6, 8, 9, 11-16, 18-23, 25, 26, 28-33
    3    8 O      7, 10, 24, 27
    4    1 H      34-72
constraining bond 58 59 to    3.2800000 Å, actual value:    1.7795474 Å

          :  Hamiltonian                  GFN2-xTB          :
 * total energy  :   -99.0021437 Eh     change       -0.4035485E-08 Eh
 * total energy  :   -99.1623372 Eh     change       -0.1601935E+00 Eh
 * total energy  :   -99.2361591 Eh     change       -0.7382185E-01 Eh
 * total energy  :   -99.2541952 Eh     change       -0.1803608E-01 Eh
 * total energy  :   -99.2572242 Eh     change       -0.3028990E-02 Eh
 * total energy  :   -99.2580869 Eh     change       -0.8627800E-03 Eh
 * total energy  :   -99.2589558 Eh     change       -0.8688514E-03 Eh
 * total energy  :   -99.2596076 Eh     change       -0.6517911E-03 Eh
 * total energy  :   -99.2607927 Eh     change       -0.1185093E-02 Eh
 * total energy  :   -99.2635036 Eh     change       -0.2710964E-02 Eh
 * total energy  :   -99.3334907 Eh     change       -0.7748794E-03 Eh
 * total energy  :   -99.3341549 Eh     change       -0.6642154E-03 Eh
 * total energy  :   -99.3344307 Eh     change       -0.2758262E-03 Eh
 * total energy  :   -99.3346679 Eh     change       -0.2371822E-03 Eh
 * total energy  :   -99.3348016 Eh     change       -0.1337011E-03 Eh
 * total energy  :   -99.3349708 Eh     change       -0.1691618E-03 Eh
 * total energy  :   -99.3350478 Eh     change       -0.7702474E-04 Eh
 * total energy  :   -99.3351171 Eh     change       -0.6930208E-04 Eh
 * total energy  :   -99.3351389 Eh     change       -0.2176096E-04 Eh
   *** GEOMETRY OPTIMIZATION CONVERGED AFTER 48 ITERATIONS ***

 final structure:
================
72
 xtb: 6.6.1 (8d0f1dd)
N           -1.90894175822752        2.82932927632588        2.27630046427944
C           -1.84570899481192        2.11345745333210        1.25464937971691
C           -2.97220457970138        1.90459539106037        0.28141871864758
C           -3.44557765038082        0.46029859425198        0.35320625623619
C           -4.36287539920155       -0.01481385905193       -0.58661178463336
C           -4.83780287423764       -1.31443652763959       -0.54224880042442
O           -5.73439645740222       -1.84659124451990       -1.40047233349136
C           -6.34455082404639       -1.01614844356203       -2.35990945874114
C           -4.37220100474061       -2.19527824921908        0.46995491468071
O           -4.87933960697635       -3.44546254656955        0.43057408709596
C           -4.53004584148544       -4.35619341380303        1.44601928875828
C           -3.46262420755136       -1.71838594100313        1.39927171488553
C           -3.00947240078642       -0.40571757414412        1.34288468773945
C           -2.37823446222002        2.19445146453391       -1.12211025965635
C           -1.43497845823927        1.09985842017291       -1.65182095565800
C           -0.12366587720300        1.05935645625001       -0.96587641398199
N            0.51179609262521       -0.04942810975300       -0.58432668767590
C            1.89498786764564        0.01073427854802       -0.18289776692592
C            2.84336197628525       -0.32281488257866       -1.35778597344703
C            4.27473802637078       -0.15028351802353       -0.95234852614591
C            4.92850586712869        1.02441237584582       -1.10553041048196
C            6.27607114802245        1.21937299999372       -0.72665205237406
C            6.98213849614481        0.21165556683549       -0.09375591031092
O            8.24782987782105        0.29520840979714        0.36344394459317
C            8.95581180892380        1.50409135238885        0.18825712471183
C            6.34084761902071       -1.02479872982646        0.13661774301975
O            6.90280344326836       -1.90473511430881        0.94329504837716
C            6.39062827510546       -3.07860054956733        1.18336962864892
C            4.97946554310935       -1.33808547465282       -0.38332591034128
C           -0.10096811559776       -1.35208272262040       -0.68489188709508
C           -4.19355429636187        2.83410925123662        0.54390367354217
C           -4.86030242135929        2.51397004338053        1.87973031413010
C           -3.84327121318108        4.31838344477600        0.48417913418392
H           -4.72203279377834        0.64823798838217       -1.35596967529934
H           -6.86428418206606       -0.17561451208298       -1.89010279025502
H           -7.06917394805497       -1.64613019748820       -2.87208331057551
H           -5.61858431853921       -0.63844127498999       -3.08745760834282
H           -4.81605664312633       -3.98431540772080        2.43441080473104
H           -5.08737243032153       -5.26495391184794        1.22755725260562
H           -3.45789129697730       -4.57822947248546        1.43532525123503
H           -3.10649500766781       -2.35810597915511        2.19047199335944
H           -2.32725959066905       -0.06235212251641        2.10516973521114
H           -3.19722269659783        2.30544562469758       -1.83197564064713
H           -1.84041173347900        3.14265450327729       -1.08812910086123
H           -1.93824332846127        0.13547754738423       -1.61149935784726
H           -1.24521925949779        1.33305333642485       -2.70820654827830
H           -0.92801295250278        1.58510062295927        0.92739930101709
H            0.44146411925408        1.97782919057050       -0.91168089028525
H            2.06122133548526       -0.69218461578290        0.63696883179335
H            2.12457508679456        1.01621035303436        0.17580583066436
H            2.60723767805340        0.35055267169399       -2.18381317382954
H            2.66180230414758       -1.34805218103144       -1.68494417895268
H            4.41216672998330        1.86404034704126       -1.54790659733900
H            6.72862255140717        2.17697503400634       -0.91348347341566
H            8.46014266394758        2.33381024038011        0.69970252419286
H            9.07541972627146        1.74428178305073       -0.87193373545925
H            9.93380521174812        1.33560238132782        0.63382098311136
H            6.80354388911734       -3.59607966337332        2.01539740010634
H            4.46044617507952       -1.80711392790792        0.47817918305399
H            5.59703437137085       -3.52341741647314        0.61428011488232
H            5.02896054133655       -2.12350062397718       -1.15707832167005
H           -0.25031812385638       -1.64267608815319       -1.72733873325564
H           -1.06868842039033       -1.35671985775136       -0.17735176640687
H            0.54184379467367       -2.08835797776207       -0.20906747779054
H           -4.91829635606155        2.62678865513216       -0.25163831548758
H           -4.17801983126406        2.72683859182799        2.69617323066461
H           -5.15674218991846        1.46905856553704        1.93014330072074
H           -5.74867036599525        3.12830049004381        2.00032061041932
H           -3.10191878803167        4.56191960531173        1.23878418733948
H           -3.46919766093986        4.60825002896044       -0.49422883356386
H           -4.73698231528409        4.90334992546902        0.68501070165922
H           -1.07294594594012        2.91717938860483        2.84572214353146

          :  Hamiltonian                  GFN2-xTB          :
         :: total energy             -99.335138881864 Eh    ::
         :: gradient norm              0.001408439320 Eh/a0 ::
         :: HOMO-LUMO gap              1.145809934859 eV    ::
         :: SCC energy              -100.700322493424 Eh    ::
         :: -> dispersion             -0.075227678620 Eh    ::
         :: repulsion energy           1.363533147789 Eh    ::

    * Orbital Energies and Occupations

         #    Occupation            Energy/Eh            Energy/eV
      -------------------------------------------------------------
         1        2.0000           -0.8498812             -23.1264
       ...           ...                  ...                  ...
        78        1.9990           -0.5291390             -14.3986
        79        1.9987           -0.5252352             -14.2924
        80        1.9986           -0.5234264             -14.2432
        81        1.9985           -0.5228909             -14.2286
        82        1.9979           -0.5172357             -14.0747
        83        1.9966           -0.5096030             -13.8670
        84        1.9960           -0.5069574             -13.7950
        85        1.9953           -0.5041946             -13.7198
        86        1.9838           -0.4846529             -13.1881
        87        1.9775           -0.4793657             -13.0442
        88        1.9469           -0.4655426             -12.6681
        89        1.8924           -0.4539152             -12.3517
        90        1.6083           -0.4308895             -11.7251 (HOMO)
        91        0.4465           -0.3887817             -10.5793 (LUMO)
        92        0.1417           -0.3677675             -10.0075
        93        0.0166           -0.3328313              -9.0568
        94        0.0041           -0.3106958              -8.4545
        95        0.0034           -0.3076895              -8.3727
        96        0.0034           -0.3073689              -8.3639
        97        0.0000           -0.2249612              -6.1215
        98        0.0000           -0.1847631              -5.0277
        99                         -0.1322140              -3.5977
       100                         -0.0723884              -1.9698
       101                         -0.0623939              -1.6978
       ...                                ...                  ...
       171                          0.5786700              15.7464
      -------------------------------------------------------------
                  HL-Gap            0.0421077 Eh            1.1458 eV

     #   Z          covCN         q      C6AA      α(0)
     1   7 N        1.773    -0.272    27.866     7.817
     2   6 C        2.827     0.101    25.757     8.316
     3   6 C        3.908     0.006    20.415     6.422
     4   6 C        2.974     0.002    27.980     8.677
     5   6 C        2.921    -0.080    30.000     8.982
     6   6 C        2.862     0.128    25.184     8.226
     7   8 O        1.706    -0.233    17.868     5.707
     8   6 C        3.644     0.029    20.429     6.497
     9   6 C        2.864     0.127    25.212     8.230
    10   8 O        1.706    -0.232    17.851     5.704
    11   6 C        3.645     0.028    20.433     6.496
    12   6 C        2.914    -0.076    29.885     8.964
    13   6 C        2.921    -0.054    29.342     8.883
    14   6 C        3.813    -0.064    21.723     6.634
    15   6 C        3.802    -0.068    21.802     6.648
    16   6 C        2.843     0.001    27.992     8.671
    17   7 N        2.729     0.002    21.231     6.843
    18   6 C        3.755    -0.016    20.915     6.521
    19   6 C        3.806    -0.072    21.874     6.658
    20   6 C        2.953    -0.012    28.316     8.728
    21   6 C        2.908    -0.044    29.091     8.844
    22   6 C        2.912    -0.081    30.038     8.987
    23   6 C        2.851     0.137    25.003     8.195
    24   8 O        1.706    -0.237    17.922     5.716
    25   6 C        3.645     0.025    20.485     6.505
    26   6 C        2.885     0.086    26.084     8.373
    27   8 O        1.711    -0.078    15.526     5.320
    28   6 C        2.760    -0.004    28.102     8.681
    29   6 C        3.809    -0.072    21.879     6.658
    30   6 C        3.699    -0.068    21.978     6.705
    31   6 C        3.853    -0.007    20.674     6.467
    32   6 C        3.756    -0.118    22.818     6.811
    33   6 C        3.755    -0.118    22.816     6.811
    34   1 H        0.926     0.051     2.310     2.377
    35   1 H        0.924     0.053     2.289     2.366
    36   1 H        0.925     0.079     1.984     2.203
    37   1 H        0.924     0.046     2.371     2.408
    38   1 H        0.924     0.053     2.278     2.360
    39   1 H        0.925     0.079     1.986     2.204
    40   1 H        0.924     0.046     2.374     2.410
    41   1 H        0.926     0.050     2.325     2.385
    42   1 H        0.926     0.037     2.491     2.468
    43   1 H        0.925     0.058     2.217     2.329
    44   1 H        0.924     0.052     2.294     2.369
    45   1 H        0.925     0.065     2.145     2.291
    46   1 H        0.923     0.076     2.025     2.225
    47   1 H        0.922     0.006     2.953     2.688
    48   1 H        0.926     0.065     2.142     2.288
    49   1 H        0.924     0.063     2.167     2.302
    50   1 H        0.924     0.067     2.122     2.278
    51   1 H        0.924     0.056     2.241     2.341
    52   1 H        0.924     0.054     2.269     2.356
    53   1 H        0.926     0.049     2.333     2.389
    54   1 H        0.926     0.058     2.218     2.329
    55   1 H        0.924     0.054     2.267     2.354
    56   1 H        0.924     0.056     2.246     2.344
    57   1 H        0.925     0.082     1.963     2.191
    58   1 H        0.927     0.081     1.964     2.192
    59   1 H        0.922     0.060     2.204     2.322
    60   1 H        0.926     0.053     2.277     2.360
    61   1 H        0.923     0.070     2.083     2.257
    62   1 H        0.924     0.073     2.055     2.242
    63   1 H        0.924     0.079     1.990     2.206
    64   1 H        0.925     0.075     2.027     2.226
    65   1 H        0.924     0.036     2.505     2.475
    66   1 H        0.925     0.068     2.108     2.270
    67   1 H        0.925     0.035     2.521     2.483
    68   1 H        0.925     0.049     2.326     2.385
    69   1 H        0.925     0.060     2.201     2.320
    70   1 H        0.925     0.033     2.538     2.491
    71   1 H        0.925     0.053     2.284     2.363
    72   1 H        0.860     0.154     1.372     1.835

Wiberg/Mayer (AO) data.
largest (>0.10) Wiberg bond orders for each atom

     #   Z sym  total        # sym  WBO       # sym  WBO       # sym  WBO
 ---------------------------------------------------------------------------
     1   7 N    3.039 --     2 C    1.954    72 H    0.943
     2   6 C    3.925 --     1 N    1.954     3 C    0.995    47 H    0.898
     3   6 C    3.977 --     2 C    0.995     4 C    0.969    14 C    0.957
                            31 C    0.944
     4   6 C    3.954 --    13 C    1.418     5 C    1.367     3 C    0.969
     5   6 C    3.965 --     6 C    1.404     4 C    1.367    34 H    0.958
     6   6 C    3.910 --     5 C    1.404     9 C    1.226     7 O    1.095
     7   8 O    2.253 --     6 C    1.095     8 C    0.979
     8   6 C    3.934 --     7 O    0.979    36 H    0.977    35 H    0.974
                            37 H    0.974
     9   6 C    3.906 --    12 C    1.396     6 C    1.226    10 O    1.096
    10   8 O    2.251 --     9 C    1.096    11 C    0.979
    11   6 C    3.934 --    10 O    0.979    39 H    0.977    40 H    0.974
                            38 H    0.974
    12   6 C    3.965 --    13 C    1.401     9 C    1.396    41 H    0.964
    13   6 C    3.959 --     4 C    1.418    12 C    1.401    42 H    0.963
    14   6 C    3.973 --    15 C    0.983    44 H    0.973    43 H    0.969
                             3 C    0.957
    15   6 C    3.987 --    16 C    1.059    14 C    0.983    45 H    0.962
                            46 H    0.929
    16   6 C    3.561 --    17 N    1.371    15 C    1.059    48 H    0.958
    17   7 N    3.455 --    16 C    1.371    30 C    0.999    18 C    0.994
    18   6 C    3.952 --    17 N    0.994    50 H    0.968    49 H    0.966
                            19 C    0.959
    19   6 C    3.976 --    20 C    1.019    52 H    0.971    51 H    0.970
                            18 C    0.959
    20   6 C    3.836 --    21 C    1.637    29 C    1.024    19 C    1.019
    21   6 C    3.967 --    20 C    1.637    22 C    1.260    53 H    0.965
    22   6 C    3.809 --    23 C    1.394    21 C    1.260    54 H    0.965
    23   6 C    3.895 --    22 C    1.394    26 C    1.247    24 O    1.101
    24   8 O    2.259 --    23 C    1.101    25 C    0.973
    25   6 C    3.929 --    57 H    0.977    55 H    0.975    56 H    0.974
                            24 O    0.973
    26   6 C    3.779 --    23 C    1.247    27 O    1.171    29 C    1.024
                            28 C    0.215
    27   8 O    2.545 --    28 C    1.260    26 C    1.171
    28   6 C    3.569 --    27 O    1.260    58 H    0.970    60 H    0.967
                            26 C    0.215
    29   6 C    3.989 --    26 C    1.024    20 C    1.024    59 H    0.926
                            61 H    0.924
    30   6 C    3.959 --    17 N    0.999    64 H    0.978    62 H    0.967
                            63 H    0.962
    31   6 C    3.975 --    33 C    1.009    32 C    1.008    65 H    0.961
                             3 C    0.944
    32   6 C    3.981 --    31 C    1.008    67 H    0.982    68 H    0.982
                            66 H    0.975
    33   6 C    3.985 --    31 C    1.009    70 H    0.983    71 H    0.981
                            69 H    0.977
    34   1 H    0.996 --     5 C    0.958
    35   1 H    0.994 --     8 C    0.974
    36   1 H    0.993 --     8 C    0.977
    37   1 H    0.994 --     8 C    0.974
    38   1 H    0.994 --    11 C    0.974
    39   1 H    0.993 --    11 C    0.977
    40   1 H    0.994 --    11 C    0.974
    41   1 H    0.996 --    12 C    0.964
    42   1 H    0.998 --    13 C    0.963
    43   1 H    0.995 --    14 C    0.969
    44   1 H    0.996 --    14 C    0.973
    45   1 H    0.995 --    15 C    0.962
    46   1 H    0.968 --    15 C    0.929
    47   1 H    0.988 --     2 C    0.898
    48   1 H    0.995 --    16 C    0.958
    49   1 H    0.992 --    18 C    0.966
    50   1 H    0.994 --    18 C    0.968
    51   1 H    0.995 --    19 C    0.970
    52   1 H    0.995 --    19 C    0.971
    53   1 H    0.997 --    21 C    0.965
    54   1 H    0.995 --    22 C    0.965
    55   1 H    0.994 --    25 C    0.975
    56   1 H    0.994 --    25 C    0.974
    57   1 H    0.993 --    25 C    0.977
    58   1 H    0.993 --    28 C    0.970
    59   1 H    0.978 --    29 C    0.926
    60   1 H    0.997 --    28 C    0.967
    61   1 H    0.968 --    29 C    0.924
    62   1 H    0.985 --    30 C    0.967
    63   1 H    0.987 --    30 C    0.962
    64   1 H    0.994 --    30 C    0.978
    65   1 H    0.994 --    31 C    0.961
    66   1 H    0.992 --    32 C    0.975
    67   1 H    0.997 --    32 C    0.982
    68   1 H    0.995 --    32 C    0.982
    69   1 H    0.994 --    33 C    0.977
    70   1 H    0.997 --    33 C    0.983
    71   1 H    0.994 --    33 C    0.981
    72   1 H    0.971 --     1 N    0.943
 ---------------------------------------------------------------------------

molecular dipole:
                 x           y           z       tot (Debye)
 q only:        1.849      -0.356      -0.704
   full:        2.195      -0.475      -0.862       6.114

           -------------------------------------------------
          | TOTAL ENERGY              -99.335138881864 Eh   |
          | GRADIENT NORM               0.001408439320 Eh/α |
          | HOMO-LUMO GAP               1.145809934859 eV   |
           -------------------------------------------------

 * finished run on 2024/04/06 at 11:15:17.116
