   * xtb version 6.6.1 (8d0f1dd) compiled by 'conda@1efc2f54142f' on 2023-08-01
          program call               : xtb xtbopt.xyz --opt crude --input .xc2 --gfn2

   ID    Z sym.   atoms
    1    7 N      1, 17
    2    6 C      2-6, 8, 9, 11-16, 18-23, 25, 26, 28-33
    3    8 O      7, 10, 24, 27
    4    1 H      34-72
########################################################################
[WARNING] Please study the warnings concerning your input carefully
-1- readin_getIntValue: could not parse ''
########################################################################

          :  Hamiltonian                  GFN2-xTB          :
 * total energy  :   -99.3354954 Eh     change       -0.1168132E-10 Eh
 * total energy  :   -99.3374070 Eh     change       -0.1911523E-02 Eh
 * total energy  :   -99.3384164 Eh     change       -0.1009457E-02 Eh
 * total energy  :   -99.3388579 Eh     change       -0.4414223E-03 Eh
   *** GEOMETRY OPTIMIZATION CONVERGED AFTER 4 ITERATIONS ***

 final structure:
================
72
 xtb: 6.6.1 (8d0f1dd)
N           -1.91040864634188        2.83014702670824        2.27816987470503
C           -1.84723862809175        2.11373026199230        1.25676247074944
C           -2.97401542504404        1.90551507714606        0.28363376716283
C           -3.44620663364041        0.46090809778583        0.35508913834499
C           -4.36161171410827       -0.01511199329027       -0.58606242633035
C           -4.83531251631073       -1.31519098414879       -0.54248643975970
O           -5.72977582337202       -1.84815347992361       -1.40253719759775
C           -6.33823354969815       -1.01803449510854       -2.36331924518644
C           -4.37076131736198       -2.19549987877918        0.47056906095858
O           -4.87682805090280       -3.44617237203767        0.43046374419489
C           -4.53019945431418       -4.35591919766260        1.44770103172367
C           -3.46309004717124       -1.71773301394480        1.40127580746570
C           -3.01084326064354       -0.40469903895792        1.34543595359961
C           -2.38218033731512        2.19752500417865       -1.12035915996629
C           -1.44125528247582        1.10327246786897       -1.65441624117548
C           -0.12819206525576        1.06414953566932       -0.97267644682396
N            0.51004264655004       -0.04348679417858       -0.59250292201572
C            1.89586313985035        0.02060111796530       -0.20168198934521
C            2.83519501098201       -0.30459496246518       -1.38705028635649
C            4.26868411472453       -0.13293993528577       -0.99045990444890
C            4.93028120675118        1.03638082148310       -1.13578379746173
C            6.27113743355784        1.21328006671984       -0.72599453840680
C            6.94820012358247        0.20372679166300       -0.06491759093622
O            8.21395030214403        0.28297632540028        0.39493000289918
C            8.93645214980545        1.48026519949985        0.20223236904189
C            6.29490464568964       -1.02774120850447        0.18326009306007
O            6.92003785703809       -1.91238076595483        0.94269922538403
C            6.50124704910540       -3.11477819183075        1.22112024145212
C            4.93750399684947       -1.32255083796206       -0.37675362108099
C           -0.10176559069796       -1.34706438897013       -0.68798343475663
C           -4.19566266661424        2.83439194395124        0.54671624139164
C           -4.86231598796955        2.51405868095925        1.88246739326964
C           -3.84566622419337        4.31874080948305        0.48699752993965
H           -4.72007317791624        0.64766288005356       -1.35594611662210
H           -6.85867687501000       -0.17725518109911       -1.89476513819555
H           -7.06202158008752       -1.64811035832878       -2.87652987705962
H           -5.61090833339686       -0.64068968834202       -3.08971370943404
H           -4.81868947464152       -3.98301164129279        2.43496322409452
H           -5.08707434703322       -5.26483004404643        1.22871135831786
H           -3.45807127336718       -4.57813167473071        1.44000030491167
H           -3.10771140488931       -2.35710934442703        2.19308992562184
H           -2.33002726644138       -0.06071008851342        2.10867129445410
H           -3.20213317551489        2.31175100429168       -1.82855569560353
H           -1.84248363875270        3.14460914341303       -1.08493387290090
H           -1.94369440587349        0.13851771028916       -1.61320405793697
H           -1.25479282176576        1.33738048962176       -2.71119728438264
H           -0.92948903269296        1.58577587619292        0.92957174636503
H            0.43585718771427        1.98330482044803       -0.91991444924384
H            2.06866257094671       -0.68546620102980        0.61433297422584
H            2.12454443528039        1.02482349028403        0.16116684416174
H            2.58960544866688        0.37006613224515       -2.20863986860582
H            2.65378580181300       -1.33004922942168       -1.71406292571443
H            4.43161342961440        1.87984283096844       -1.59097805458742
H            6.74541573754333        2.15869163599414       -0.92216286581597
H            8.45418271888590        2.32267795756264        0.70636009395112
H            9.05680694293872        1.70827974698059       -0.86069081068856
H            9.91456424066069        1.30525475749980        0.64588857787325
H            7.09523487898045       -3.66095730741063        1.93924529896494
H            4.29636778177730       -1.72218215151296        0.42830149448781
H            5.62149535675861       -3.54977883782369        0.76669321546852
H            5.01075673666112       -2.12426415194152       -1.13075885338485
H           -0.25135589699668       -1.64164283629397       -1.72930748790884
H           -1.06924205692537       -1.35034445487586       -0.17999890181392
H            0.54121533262925       -2.08163353910276       -0.20957152848934
H           -4.92034426860189        2.62681288880549       -0.24882369381999
H           -4.18040089084786        2.72785315852911        2.69895447508745
H           -5.15781575774392        1.46890323897557        1.93309991875923
H           -5.75127735067095        3.12763500680234        2.00251653306839
H           -3.10426576916265        4.56227012160219        1.24153870723384
H           -3.47165621929215        4.60875560908532       -0.49138258539767
H           -4.73943377228473        4.90357126335682        0.68791239194862
H           -1.07389066906038        2.91824880022628        2.84684553751460

          :  Hamiltonian                  GFN2-xTB          :
         :: total energy             -99.338857851940 Eh    ::
         :: gradient norm              0.008782566580 Eh/a0 ::
         :: HOMO-LUMO gap              1.126799038686 eV    ::
         :: SCC energy              -100.698713820726 Eh    ::
         :: -> dispersion             -0.075217307853 Eh    ::
         :: repulsion energy           1.358577588402 Eh    ::

    * Orbital Energies and Occupations

         #    Occupation            Energy/Eh            Energy/eV
      -------------------------------------------------------------
         1        2.0000           -0.8487608             -23.0960
       ...           ...                  ...                  ...
        78        1.9990           -0.5286287             -14.3847
        79        1.9988           -0.5250752             -14.2880
        80        1.9986           -0.5230917             -14.2341
        81        1.9986           -0.5225449             -14.2192
        82        1.9979           -0.5168699             -14.0647
        83        1.9967           -0.5092377             -13.8571
        84        1.9961           -0.5065906             -13.7850
        85        1.9953           -0.5038495             -13.7104
        86        1.9840           -0.4842918             -13.1783
        87        1.9789           -0.4798812             -13.0582
        88        1.9472           -0.4651439             -12.6572
        89        1.8934           -0.4535707             -12.3423
        90        1.5978           -0.4298505             -11.6968 (HOMO)
        91        0.4503           -0.3884414             -10.5700 (LUMO)
        92        0.1451           -0.3676649             -10.0047
        93        0.0167           -0.3324028              -9.0451
        94        0.0042           -0.3103295              -8.4445
        95        0.0034           -0.3070936              -8.3564
        96        0.0033           -0.3066558              -8.3445
        97        0.0000           -0.2242859              -6.1031
        98        0.0000           -0.1843881              -5.0175
        99                         -0.1318921              -3.5890
       100                         -0.0735484              -2.0014
       101                         -0.0623645              -1.6970
       ...                                ...                  ...
       171                          0.5790548              15.7569
      -------------------------------------------------------------
                  HL-Gap            0.0414091 Eh            1.1268 eV

     #   Z          covCN         q      C6AA      α(0)
     1   7 N        1.774    -0.272    27.875     7.818
     2   6 C        2.827     0.101    25.756     8.316
     3   6 C        3.908     0.006    20.415     6.422
     4   6 C        2.974     0.002    27.981     8.677
     5   6 C        2.921    -0.080    30.002     8.982
     6   6 C        2.863     0.128    25.186     8.226
     7   8 O        1.706    -0.234    17.871     5.708
     8   6 C        3.644     0.029    20.428     6.496
     9   6 C        2.864     0.127    25.214     8.231
    10   8 O        1.706    -0.233    17.855     5.705
    11   6 C        3.645     0.028    20.431     6.496
    12   6 C        2.914    -0.076    29.886     8.964
    13   6 C        2.921    -0.054    29.343     8.883
    14   6 C        3.813    -0.064    21.723     6.634
    15   6 C        3.802    -0.068    21.801     6.648
    16   6 C        2.843     0.001    28.000     8.672
    17   7 N        2.729     0.001    21.242     6.845
    18   6 C        3.755    -0.015    20.903     6.519
    19   6 C        3.806    -0.072    21.877     6.658
    20   6 C        2.953    -0.013    28.327     8.730
    21   6 C        2.906    -0.044    29.085     8.843
    22   6 C        2.911    -0.082    30.039     8.987
    23   6 C        2.850     0.137    25.000     8.195
    24   8 O        1.706    -0.237    17.924     5.716
    25   6 C        3.645     0.025    20.487     6.505
    26   6 C        2.865     0.084    26.115     8.377
    27   8 O        1.711    -0.075    15.489     5.314
    28   6 C        2.741    -0.000    28.009     8.665
    29   6 C        3.809    -0.072    21.866     6.656
    30   6 C        3.699    -0.068    21.971     6.704
    31   6 C        3.853    -0.007    20.673     6.467
    32   6 C        3.756    -0.118    22.818     6.811
    33   6 C        3.755    -0.118    22.816     6.811
    34   1 H        0.926     0.051     2.311     2.377
    35   1 H        0.924     0.052     2.290     2.366
    36   1 H        0.925     0.079     1.985     2.204
    37   1 H        0.924     0.046     2.372     2.409
    38   1 H        0.924     0.053     2.279     2.361
    39   1 H        0.925     0.079     1.987     2.204
    40   1 H        0.924     0.046     2.375     2.410
    41   1 H        0.926     0.049     2.327     2.385
    42   1 H        0.926     0.037     2.492     2.468
    43   1 H        0.925     0.058     2.219     2.329
    44   1 H        0.924     0.052     2.295     2.369
    45   1 H        0.925     0.065     2.146     2.291
    46   1 H        0.923     0.075     2.027     2.226
    47   1 H        0.922     0.006     2.960     2.690
    48   1 H        0.926     0.065     2.144     2.290
    49   1 H        0.924     0.062     2.181     2.309
    50   1 H        0.924     0.067     2.124     2.279
    51   1 H        0.924     0.057     2.238     2.339
    52   1 H        0.924     0.054     2.269     2.355
    53   1 H        0.926     0.049     2.331     2.388
    54   1 H        0.926     0.058     2.218     2.329
    55   1 H        0.924     0.054     2.267     2.355
    56   1 H        0.924     0.056     2.249     2.345
    57   1 H        0.925     0.081     1.966     2.193
    58   1 H        0.926     0.085     1.929     2.172
    59   1 H        0.923     0.058     2.222     2.331
    60   1 H        0.925     0.051     2.302     2.373
    61   1 H        0.923     0.071     2.080     2.255
    62   1 H        0.924     0.073     2.056     2.242
    63   1 H        0.924     0.079     1.990     2.206
    64   1 H        0.925     0.075     2.033     2.230
    65   1 H        0.924     0.036     2.506     2.476
    66   1 H        0.925     0.068     2.108     2.271
    67   1 H        0.925     0.035     2.522     2.483
    68   1 H        0.925     0.049     2.328     2.386
    69   1 H        0.925     0.060     2.202     2.320
    70   1 H        0.925     0.033     2.539     2.492
    71   1 H        0.925     0.053     2.285     2.364
    72   1 H        0.860     0.154     1.374     1.836

Wiberg/Mayer (AO) data.
largest (>0.10) Wiberg bond orders for each atom

     #   Z sym  total        # sym  WBO       # sym  WBO       # sym  WBO
 ---------------------------------------------------------------------------
     1   7 N    3.039 --     2 C    1.954    72 H    0.943
     2   6 C    3.925 --     1 N    1.954     3 C    0.995    47 H    0.898
     3   6 C    3.977 --     2 C    0.995     4 C    0.969    14 C    0.957
                            31 C    0.944
     4   6 C    3.954 --    13 C    1.418     5 C    1.367     3 C    0.969
     5   6 C    3.965 --     6 C    1.404     4 C    1.367    34 H    0.958
     6   6 C    3.910 --     5 C    1.404     9 C    1.226     7 O    1.095
     7   8 O    2.253 --     6 C    1.095     8 C    0.979
     8   6 C    3.934 --     7 O    0.979    36 H    0.977    35 H    0.974
                            37 H    0.974
     9   6 C    3.907 --    12 C    1.396     6 C    1.226    10 O    1.096
    10   8 O    2.251 --     9 C    1.096    11 C    0.979
    11   6 C    3.934 --    10 O    0.979    39 H    0.977    40 H    0.974
                            38 H    0.974
    12   6 C    3.965 --    13 C    1.400     9 C    1.396    41 H    0.964
    13   6 C    3.959 --     4 C    1.418    12 C    1.400    42 H    0.963
    14   6 C    3.973 --    15 C    0.983    44 H    0.973    43 H    0.969
                             3 C    0.957
    15   6 C    3.987 --    16 C    1.059    14 C    0.983    45 H    0.961
                            46 H    0.928
    16   6 C    3.558 --    17 N    1.369    15 C    1.059    48 H    0.958
    17   7 N    3.454 --    16 C    1.369    30 C    0.999    18 C    0.994
    18   6 C    3.952 --    17 N    0.994    50 H    0.968    49 H    0.965
                            19 C    0.958
    19   6 C    3.976 --    20 C    1.019    52 H    0.971    51 H    0.970
                            18 C    0.958
    20   6 C    3.834 --    21 C    1.642    29 C    1.022    19 C    1.019
    21   6 C    3.965 --    20 C    1.642    22 C    1.256    53 H    0.965
    22   6 C    3.805 --    23 C    1.397    21 C    1.256    54 H    0.965
    23   6 C    3.893 --    22 C    1.397    26 C    1.242    24 O    1.101
    24   8 O    2.259 --    23 C    1.101    25 C    0.973
    25   6 C    3.929 --    57 H    0.977    55 H    0.974    56 H    0.974
                            24 O    0.973
    26   6 C    3.772 --    23 C    1.242    27 O    1.170    29 C    1.019
                            28 C    0.221
    27   8 O    2.552 --    28 C    1.269    26 C    1.170
    28   6 C    3.566 --    27 O    1.269    60 H    0.969    58 H    0.969
                            26 C    0.221
    29   6 C    3.989 --    20 C    1.022    26 C    1.019    59 H    0.935
                            61 H    0.926
    30   6 C    3.960 --    17 N    0.999    64 H    0.978    62 H    0.967
                            63 H    0.962
    31   6 C    3.975 --    33 C    1.009    32 C    1.008    65 H    0.961
                             3 C    0.944
    32   6 C    3.981 --    31 C    1.008    67 H    0.982    68 H    0.982
                            66 H    0.975
    33   6 C    3.985 --    31 C    1.009    70 H    0.983    71 H    0.981
                            69 H    0.977
    34   1 H    0.996 --     5 C    0.958
    35   1 H    0.994 --     8 C    0.974
    36   1 H    0.993 --     8 C    0.977
    37   1 H    0.995 --     8 C    0.974
    38   1 H    0.994 --    11 C    0.974
    39   1 H    0.993 --    11 C    0.977
    40   1 H    0.994 --    11 C    0.974
    41   1 H    0.996 --    12 C    0.964
    42   1 H    0.998 --    13 C    0.963
    43   1 H    0.995 --    14 C    0.969
    44   1 H    0.996 --    14 C    0.973
    45   1 H    0.995 --    15 C    0.961
    46   1 H    0.968 --    15 C    0.928
    47   1 H    0.988 --     2 C    0.898
    48   1 H    0.995 --    16 C    0.958
    49   1 H    0.992 --    18 C    0.965
    50   1 H    0.994 --    18 C    0.968
    51   1 H    0.995 --    19 C    0.970
    52   1 H    0.995 --    19 C    0.971
    53   1 H    0.997 --    21 C    0.965
    54   1 H    0.995 --    22 C    0.965
    55   1 H    0.994 --    25 C    0.974
    56   1 H    0.994 --    25 C    0.974
    57   1 H    0.993 --    25 C    0.977
    58   1 H    0.992 --    28 C    0.969
    59   1 H    0.978 --    29 C    0.935
    60   1 H    0.997 --    28 C    0.969
    61   1 H    0.968 --    29 C    0.926
    62   1 H    0.985 --    30 C    0.967
    63   1 H    0.987 --    30 C    0.962
    64   1 H    0.994 --    30 C    0.978
    65   1 H    0.994 --    31 C    0.961
    66   1 H    0.992 --    32 C    0.975
    67   1 H    0.997 --    32 C    0.982
    68   1 H    0.995 --    32 C    0.982
    69   1 H    0.994 --    33 C    0.977
    70   1 H    0.998 --    33 C    0.983
    71   1 H    0.994 --    33 C    0.981
    72   1 H    0.971 --     1 N    0.943
 ---------------------------------------------------------------------------

molecular dipole:
                 x           y           z       tot (Debye)
 q only:        1.964      -0.401      -0.689
   full:        2.287      -0.525      -0.840       6.334

           -------------------------------------------------
          | TOTAL ENERGY              -99.338857851940 Eh   |
          | GRADIENT NORM               0.008782566580 Eh/α |
          | HOMO-LUMO GAP               1.126799038686 eV   |
           -------------------------------------------------

 * finished run on 2024/04/06 at 11:15:18.102
