   * xtb version 6.6.1 (8d0f1dd) compiled by 'conda@1efc2f54142f' on 2023-08-01
          program call               : xtb xtbopt.xyz --opt crude --input .xc2 --gfn2

   ID    Z sym.   atoms
    1    6 C      1, 3, 5-7, 10, 11, 14
    2    7 N      2, 4, 9, 13
    3    8 O      8, 12
    4    1 H      15-25

          :  Hamiltonian                  GFN2-xTB          :
 * total energy  :   -42.1042563 Eh     change       -0.3609557E-11 Eh
   *** GEOMETRY OPTIMIZATION CONVERGED AFTER 1 ITERATIONS ***

 final structure:
================
25
 xtb: 6.6.1 (8d0f1dd)
C            3.24069878463394        1.11258221636641        0.05889727290936
N            2.30341832415803        0.02219217039155        0.01463227435503
C            2.59495472269357       -1.27584308534290        0.03406103603848
N            1.45373142681090       -2.00312970796975       -0.00128097221775
C            0.40217426205458       -1.13690273314039       -0.04512551862538
C            0.93116333218912        0.14757915205937       -0.03686702344041
C            0.11030812859616        1.31936239246914       -0.08608263099004
O            0.46572997493885        2.47635916516127       -0.08490431524533
N           -1.28612080970502        0.97395419664118       -0.14820599283192
C           -2.16076603858576        1.98651395735718       -0.22111242607537
C           -1.82855079637041       -0.34470049563818       -0.13871669343270
O           -3.01397040021158       -0.52627610093034       -0.17374965437019
N           -0.92071228768447       -1.39770663912845       -0.08536922362836
C           -1.42779842479258       -2.75732005822060       -0.07989724075012
H            3.73565962090879        1.14616573284682        1.03038683037749
H            3.99638273361432        0.99331231443503       -0.71665520662224
H            2.70055332273415        2.04584732065846       -0.09482012134348
H            3.58247686994138       -1.69000941504279        0.07161860962827
H           -1.77126450371952        2.98781657815588       -0.23431514566279
H           -3.20886460814372        1.76126963215109       -0.26690268619273
H           -3.43191798173795        4.26523118791720        1.47233551293879
H           -1.08770257126747       -3.28458142041260        0.81130925009671
H           -1.10864611308294       -3.28706948414661       -0.97791873554323
H           -2.51563472228093       -2.70457510365893       -0.06798937674685
H            1.40512926840881       -3.01183323137901       -0.00215620472517

          :  Hamiltonian                  GFN2-xTB          :
         :: total energy             -42.104256320174 Eh    ::
         :: gradient norm              0.002717377700 Eh/a0 ::
         :: HOMO-LUMO gap              0.205563924996 eV    ::
         :: SCC energy               -42.625007741466 Eh    ::
         :: -> dispersion             -0.022657386666 Eh    ::
         :: repulsion energy           0.520665653877 Eh    ::

    * Orbital Energies and Occupations

         #    Occupation            Energy/Eh            Energy/eV
      -------------------------------------------------------------
         1        2.0000           -0.9110521             -24.7910
       ...           ...                  ...                  ...
        25        2.0000           -0.6711459             -18.2628
        26        2.0000           -0.6690489             -18.2057
        27        2.0000           -0.6629123             -18.0388
        28        1.9999           -0.6327311             -17.2175
        29        1.9999           -0.6299594             -17.1421
        30        1.9999           -0.6278268             -17.0840
        31        1.9998           -0.6188946             -16.8410
        32        1.9997           -0.6143313             -16.7168
        33        1.9997           -0.6128638             -16.6769
        34        1.9982           -0.5852821             -15.9263
        35        1.9941           -0.5665674             -15.4171
        36        1.9903           -0.5585589             -15.1992
        37        1.0584           -0.4761520             -12.9568 (HOMO)
        38        0.8218           -0.4685976             -12.7512 (LUMO)
        39        0.1176           -0.4303993             -11.7118
        40        0.0176           -0.3995435             -10.8721
        41        0.0031           -0.3717382             -10.1155
        42        0.0000           -0.2874643              -7.8223
        43        0.0000           -0.2082460              -5.6667
        44                         -0.1969729              -5.3599
        45                         -0.1505619              -4.0970
        46                         -0.1460911              -3.9753
        47                         -0.0782888              -2.1303
        48                         -0.0542269              -1.4756
       ...                                ...                  ...
        67                          0.5492216              14.9451
      -------------------------------------------------------------
                  HL-Gap            0.0075543 Eh            0.2056 eV

     #   Z          covCN         q      C6AA      α(0)
     1   6 C        3.691    -0.094    22.488     6.786
     2   7 N        2.829     0.077    19.901     6.626
     3   6 C        3.049     0.047    26.902     8.507
     4   7 N        2.791    -0.058    22.356     7.022
     5   6 C        3.040     0.106    25.630     8.304
     6   6 C        3.108    -0.023    28.433     8.736
     7   6 C        2.775     0.254    22.730     7.808
     8   8 O        0.857    -0.362    20.937     6.135
     9   7 N        2.741    -0.032    21.860     6.944
    10   6 C        2.815    -0.022    28.538     8.753
    11   6 C        2.737     0.309    21.751     7.636
    12   8 O        0.859    -0.350    20.713     6.102
    13   7 N        2.737    -0.049    22.187     6.996
    14   6 C        3.699    -0.074    22.078     6.720
    15   1 H        0.924     0.107     1.721     2.051
    16   1 H        0.925     0.105     1.742     2.064
    17   1 H        0.925     0.134     1.503     1.917
    18   1 H        0.926     0.124     1.584     1.968
    19   1 H        0.926     0.134     1.503     1.917
    20   1 H        0.926     0.130     1.532     1.935
    21   1 H        0.000     0.012     7.114     4.877
    22   1 H        0.925     0.083     1.946     2.182
    23   1 H        0.924     0.085     1.932     2.174
    24   1 H        0.925     0.127     1.556     1.951
    25   1 H        0.860     0.229     0.970     1.543

Wiberg/Mayer (AO) data.
largest (>0.10) Wiberg bond orders for each atom

     #   Z sym  total        # sym  WBO       # sym  WBO       # sym  WBO
 ---------------------------------------------------------------------------
     1   6 C    3.917 --     2 N    0.986    16 H    0.963    17 H    0.962
                            15 H    0.957
     2   7 N    3.648 --     3 C    1.378     6 C    1.146     1 C    0.986
     3   6 C    3.820 --     2 N    1.378     4 N    1.267    18 H    0.953
     4   7 N    3.579 --     3 C    1.267     5 C    1.194    25 H    0.919
     5   6 C    3.899 --     6 C    1.328     4 N    1.194    13 N    1.189
     6   6 C    3.909 --     5 C    1.328     2 N    1.146     7 C    1.116
     7   6 C    3.868 --     8 O    1.675     6 C    1.116     9 N    0.984
     8   8 O    1.959 --     7 C    1.675     9 N    0.108
     9   7 N    3.614 --    10 C    1.347    11 C    1.013     7 C    0.984
                             8 O    0.108
    10   6 C    3.357 --     9 N    1.347    20 H    0.960    19 H    0.957
    11   6 C    3.905 --    12 O    1.708    13 N    1.089     9 N    1.013
    12   8 O    2.021 --    11 C    1.708    13 N    0.135
    13   7 N    3.566 --     5 C    1.189    11 C    1.089    14 C    0.971
                            12 O    0.135
    14   6 C    3.924 --    22 H    0.972    23 H    0.971    13 N    0.971
                            24 H    0.965
    15   1 H    0.984 --     1 C    0.957
    16   1 H    0.985 --     1 C    0.963
    17   1 H    0.982 --     1 C    0.962
    18   1 H    0.984 --     3 C    0.953
    19   1 H    0.981 --    10 C    0.957
    20   1 H    0.982 --    10 C    0.960
    21   1 H    0.015
    22   1 H    0.991 --    14 C    0.972
    23   1 H    0.991 --    14 C    0.971
    24   1 H    0.983 --    14 C    0.965
    25   1 H    0.947 --     4 N    0.919
 ---------------------------------------------------------------------------

molecular dipole:
                 x           y           z       tot (Debye)
 q only:        2.388      -2.015      -0.003
   full:        2.624      -2.463       0.014       9.148

           -------------------------------------------------
          | TOTAL ENERGY              -42.104256320174 Eh   |
          | GRADIENT NORM               0.002717377700 Eh/α |
          | HOMO-LUMO GAP               0.205563924996 eV   |
           -------------------------------------------------

 * finished run on 2024/06/05 at 19:58:05.159
