   * xtb version 6.6.1 (8d0f1dd) compiled by 'conda@1efc2f54142f' on 2023-08-01
          program call               : xtb struc.xyz --opt loose --input .xc1 --gfn2

   ID    Z sym.   atoms
    1    7 N      1, 17
    2    6 C      2-6, 8, 9, 11-16, 18-23, 25, 26, 28-33
    3    8 O      7, 10, 24, 27
    4    1 H      34-72
constraining bond 31 69 to    4.1400000 Å, actual value:    2.1633362 Å

          :  Hamiltonian                  GFN2-xTB          :
 * total energy  :   -98.7064879 Eh     change       -0.4035485E-08 Eh
 * total energy  :   -98.9451735 Eh     change       -0.2386856E+00 Eh
 * total energy  :   -99.0792998 Eh     change       -0.1341263E+00 Eh
 * total energy  :   -99.1461371 Eh     change       -0.6683727E-01 Eh
 * total energy  :   -99.1739469 Eh     change       -0.2780984E-01 Eh
 * total energy  :   -99.1839209 Eh     change       -0.9973953E-02 Eh
 * total energy  :   -99.1885161 Eh     change       -0.4595225E-02 Eh
 * total energy  :   -99.1943163 Eh     change       -0.5800241E-02 Eh
 * total energy  :   -99.2047546 Eh     change       -0.1043830E-01 Eh
 * total energy  :   -99.2175404 Eh     change       -0.1278575E-01 Eh
 * total energy  :   -99.3921026 Eh     change       -0.6497561E-03 Eh
 * total energy  :   -99.3930108 Eh     change       -0.9082391E-03 Eh
 * total energy  :   -99.3935063 Eh     change       -0.4954361E-03 Eh
 * total energy  :   -99.3939518 Eh     change       -0.4455620E-03 Eh
 * total energy  :   -99.3942062 Eh     change       -0.2544044E-03 Eh
 * total energy  :   -99.3943250 Eh     change       -0.1187949E-03 Eh
 * total energy  :   -99.3944465 Eh     change       -0.1214445E-03 Eh
 * total energy  :   -99.3945013 Eh     change       -0.5478121E-04 Eh
 * total energy  :   -99.3945448 Eh     change       -0.4352721E-04 Eh
   *** GEOMETRY OPTIMIZATION CONVERGED AFTER 57 ITERATIONS ***

 final structure:
================
72
 xtb: 6.6.1 (8d0f1dd)
N           -1.98624789312852        3.12925260042514        1.89679537164377
C           -1.87096654676390        2.09790665633882        1.18961122464005
C           -3.01814897783564        1.79113236533971        0.24885781626201
C           -3.49475542970794        0.36113424858564        0.33593460144992
C           -4.40377803931879       -0.13589258488889       -0.60055401142996
C           -4.86266551396099       -1.44104189861865       -0.53956012777707
O           -5.74740310637716       -1.99628546380070       -1.39454715113490
C           -6.35534874426084       -1.18982215060541       -2.37578686416644
C           -4.38992984597036       -2.30177950713712        0.48812725292991
O           -4.86924661171957       -3.56112469892119        0.45679716886752
C           -4.49012946307526       -4.46333474413758        1.46988790246819
C           -3.50229509175405       -1.79589464107282        1.42438607687283
C           -3.06657860481498       -0.47896139680467        1.35219500333580
C           -2.55754939687415        2.14782946518592       -1.18300368862840
C           -1.56993868799614        1.13574776885058       -1.79188093842577
C           -0.24293100634994        1.16236264512290       -1.14510140887222
N            0.39877475547181        0.11504788811867       -0.65257347063325
C            1.76836164993438        0.23881280888885       -0.20975651786757
C            2.75142564639175       -0.21721975879725       -1.30563746498609
C            4.17246989600855       -0.03895473259426       -0.84999989743490
C            4.82784518826062        1.16707164757873       -1.04012745004220
C            6.13865808967928        1.33641526941296       -0.62296617708807
C            6.82150552043424        0.30060684415911       -0.00117963355563
O            8.09440578217198        0.34669031054213        0.43101229569762
C            8.84727683794285        1.52123945729958        0.23171275164946
C            6.15283950377174       -0.93743802926012        0.21021672767489
O            6.88815203997580       -1.88763412846647        0.81996961682962
C            6.32549370543552       -3.15797714905897        1.04569538789362
C            4.84127359414912       -1.08220939504398       -0.21424488103730
C           -0.16722203695318       -1.21329576668963       -0.67473853221329
C           -4.07317855386852        2.83741106224001        0.73853480177001
C           -5.25151448792627        2.22628128411954        1.48662488249964
C           -3.25335498046267        3.76141902152094        1.67658316336518
H           -4.77052768933587        0.51658125761588       -1.37590771780501
H           -6.89437450302060       -0.34981111622167       -1.92690793300454
H           -7.06341059936075       -1.83749405794253       -2.88886356029565
H           -5.62408167303339       -0.81260198095410       -3.09813845208408
H           -4.78545355681804       -4.10299883145224        2.45977162643935
H           -5.01943405888453       -5.38854986726776        1.25038748651070
H           -3.41153994604309       -4.65138259061361        1.45596855261987
H           -3.14803308089746       -2.41770060110311        2.23045726351482
H           -2.39915855639048       -0.11103903089014        2.11624484215366
H           -3.42907141449830        2.20395601758066       -1.83608308001041
H           -2.09676108531255        3.13721853495825       -1.16078826717701
H           -2.01185733918724        0.14104979244225       -1.77515047360556
H           -1.43100514208134        1.42581269663156       -2.84081928226499
H           -0.97143898640614        1.50574962979337        1.23465865328283
H            0.26119660357359        2.11502053995216       -1.08182965620296
H            1.91251297373952       -0.36910087246486        0.68692102700425
H            1.97480778174412        1.27985869851851        0.04560802451345
H            2.57304824193487        0.38015779381735       -2.20157701661533
H            2.56677410249575       -1.26483215478799       -1.54672383092187
H            4.32299601093547        1.98462920043774       -1.53177034766372
H            6.62512765268622        2.28252343791312       -0.79427197461669
H            8.40900364900754        2.37288754002501        0.76060905240054
H            8.94169444981365        1.75987471626667       -0.83187743041730
H            9.83235682867787        1.30944567761329        0.64292342486027
H            7.10951443136015       -3.74420853939845        1.52092767997922
H            5.46135470091058       -3.10083880295359        1.71529454843291
H            6.03220719866101       -3.63959420945322        0.10774654214996
H            4.32972256206462       -2.02081796952940       -0.06846351946370
H           -0.25150971720828       -1.59251220315931       -1.69557665751707
H           -1.15894160780191       -1.21199783069726       -0.21695681089856
H            0.47263302791171       -1.88459408283664       -0.10782662704370
H           -4.45666854831356        3.40615082550091       -0.11064837493009
H           -4.90684981507779        1.64851433749400        2.34028092453153
H           -5.83424001157258        1.57267573684948        0.84310754896973
H           -5.90455422283921        3.01841121426392        1.84483684801168
H           -0.84693398798643        5.13704615721576       -0.48429112907522
H           -3.07339780635271        4.74830820375428        1.24224953810987
H           -3.74067801545069        3.90987607001817        2.64274889014190
H           -0.54381244516539        4.93097088773306        0.20371068002670

          :  Hamiltonian                  GFN2-xTB          :
         :: total energy             -99.394544786618 Eh    ::
         :: gradient norm              0.001859850689 Eh/a0 ::
         :: HOMO-LUMO gap              1.625780346088 eV    ::
         :: SCC energy              -100.781978501265 Eh    ::
         :: -> dispersion             -0.074968748712 Eh    ::
         :: repulsion energy           1.386194793665 Eh    ::

    * Orbital Energies and Occupations

         #    Occupation            Energy/Eh            Energy/eV
      -------------------------------------------------------------
         1        2.0000           -0.8095060             -22.0278
       ...           ...                  ...                  ...
        78        1.9988           -0.5349468             -14.5566
        79        1.9986           -0.5330877             -14.5061
        80        1.9982           -0.5287696             -14.3886
        81        1.9980           -0.5270766             -14.3425
        82        1.9976           -0.5239039             -14.2562
        83        1.9972           -0.5217871             -14.1986
        84        1.9968           -0.5198657             -14.1463
        85        1.9920           -0.5051124             -13.7448
        86        1.9805           -0.4908974             -13.3580
        87        1.9773           -0.4885070             -13.2930
        88        1.9388           -0.4724614             -12.8563
        89        1.8714           -0.4601396             -12.5210
        90        1.8354           -0.4559236             -12.4063 (HOMO)
        91        0.4078           -0.3961773             -10.7805 (LUMO)
        92        0.0077           -0.3298582              -8.9759
        93        0.0035           -0.3173148              -8.6346
        94        0.0029           -0.3143712              -8.5545
        95        0.0026           -0.3124131              -8.5012
        96        0.0022           -0.3101266              -8.4390
        97        0.0000           -0.1920795              -5.2267
        98        0.0000           -0.1875603              -5.1038
        99                         -0.1356817              -3.6921
       100                         -0.0780062              -2.1227
       101                         -0.0645411              -1.7563
       ...                                ...                  ...
       171                          0.5763166              15.6824
      -------------------------------------------------------------
                  HL-Gap            0.0597463 Eh            1.6258 eV

     #   Z          covCN         q      C6AA      α(0)
     1   7 N        1.835    -0.201    26.185     7.583
     2   6 C        2.969     0.063    26.582     8.457
     3   6 C        3.923    -0.000    20.523     6.438
     4   6 C        2.968     0.000    28.024     8.683
     5   6 C        2.920    -0.080    30.003     8.982
     6   6 C        2.862     0.129    25.177     8.225
     7   8 O        1.706    -0.231    17.835     5.702
     8   6 C        3.644     0.029    20.428     6.496
     9   6 C        2.864     0.129    25.170     8.224
    10   8 O        1.706    -0.229    17.791     5.695
    11   6 C        3.645     0.027    20.453     6.500
    12   6 C        2.914    -0.074    29.852     8.959
    13   6 C        2.922    -0.054    29.341     8.883
    14   6 C        3.809    -0.061    21.669     6.626
    15   6 C        3.802    -0.069    21.820     6.650
    16   6 C        2.845     0.008    27.838     8.647
    17   7 N        2.729     0.021    20.884     6.787
    18   6 C        3.756    -0.019    20.969     6.529
    19   6 C        3.808    -0.071    21.843     6.653
    20   6 C        2.968     0.000    28.016     8.682
    21   6 C        2.922    -0.048    29.190     8.860
    22   6 C        2.914    -0.067    29.664     8.931
    23   6 C        2.865     0.134    25.065     8.207
    24   8 O        1.706    -0.220    17.655     5.673
    25   6 C        3.645     0.024    20.498     6.507
    26   6 C        2.863     0.134    25.077     8.208
    27   8 O        1.706    -0.223    17.706     5.681
    28   6 C        3.645     0.027    20.460     6.501
    29   6 C        2.919    -0.079    29.977     8.978
    30   6 C        3.700    -0.073    22.062     6.717
    31   6 C        3.877    -0.024    20.950     6.508
    32   6 C        3.753    -0.109    22.635     6.784
    33   6 C        3.863     0.001    20.516     6.441
    34   1 H        0.926     0.050     2.325     2.385
    35   1 H        0.924     0.052     2.298     2.371
    36   1 H        0.925     0.081     1.969     2.195
    37   1 H        0.924     0.047     2.358     2.401
    38   1 H        0.924     0.055     2.258     2.350
    39   1 H        0.925     0.081     1.969     2.194
    40   1 H        0.924     0.048     2.343     2.394
    41   1 H        0.926     0.052     2.296     2.370
    42   1 H        0.926     0.042     2.420     2.433
    43   1 H        0.924     0.057     2.230     2.335
    44   1 H        0.924     0.051     2.313     2.378
    45   1 H        0.925     0.066     2.134     2.284
    46   1 H        0.924     0.081     1.969     2.194
    47   1 H        0.926     0.036     2.503     2.474
    48   1 H        0.926     0.074     2.047     2.237
    49   1 H        0.924     0.070     2.082     2.256
    50   1 H        0.924     0.072     2.063     2.246
    51   1 H        0.924     0.056     2.252     2.347
    52   1 H        0.924     0.056     2.248     2.345
    53   1 H        0.926     0.046     2.365     2.405
    54   1 H        0.926     0.060     2.204     2.321
    55   1 H        0.924     0.056     2.252     2.347
    56   1 H        0.924     0.056     2.243     2.342
    57   1 H        0.925     0.083     1.949     2.183
    58   1 H        0.925     0.082     1.955     2.187
    59   1 H        0.924     0.050     2.326     2.385
    60   1 H        0.924     0.053     2.288     2.366
    61   1 H        0.926     0.048     2.351     2.398
    62   1 H        0.924     0.078     2.004     2.214
    63   1 H        0.924     0.083     1.953     2.185
    64   1 H        0.925     0.081     1.970     2.195
    65   1 H        0.924     0.038     2.481     2.463
    66   1 H        0.925     0.044     2.398     2.422
    67   1 H        0.925     0.042     2.420     2.433
    68   1 H        0.925     0.051     2.306     2.375
    69   1 H        0.805    -0.008     3.263     2.838
    70   1 H        0.924     0.059     2.211     2.325
    71   1 H        0.924     0.069     2.091     2.261
    72   1 H        0.805     0.011     2.923     2.686

Wiberg/Mayer (AO) data.
largest (>0.10) Wiberg bond orders for each atom

     #   Z sym  total        # sym  WBO       # sym  WBO       # sym  WBO
 ---------------------------------------------------------------------------
     1   7 N    3.045 --     2 C    1.901    33 C    1.031
     2   6 C    3.954 --     1 N    1.901     3 C    0.971    47 H    0.953
     3   6 C    3.973 --     4 C    0.988     2 C    0.971    14 C    0.959
                            31 C    0.946
     4   6 C    3.950 --    13 C    1.413     5 C    1.367     3 C    0.988
     5   6 C    3.962 --     6 C    1.402     4 C    1.367    34 H    0.959
     6   6 C    3.904 --     5 C    1.402     9 C    1.222     7 O    1.097
     7   8 O    2.252 --     6 C    1.097     8 C    0.979
     8   6 C    3.933 --     7 O    0.979    36 H    0.977    35 H    0.974
                            37 H    0.973
     9   6 C    3.902 --    12 C    1.392     6 C    1.222    10 O    1.102
    10   8 O    2.253 --     9 C    1.102    11 C    0.978
    11   6 C    3.931 --    10 O    0.978    39 H    0.977    40 H    0.974
                            38 H    0.973
    12   6 C    3.962 --    13 C    1.404     9 C    1.392    41 H    0.964
    13   6 C    3.955 --     4 C    1.413    12 C    1.404    42 H    0.964
    14   6 C    3.967 --    15 C    0.974    44 H    0.972    43 H    0.966
                             3 C    0.959
    15   6 C    3.987 --    16 C    1.064    14 C    0.974    45 H    0.963
                            46 H    0.930
    16   6 C    3.576 --    17 N    1.426    15 C    1.064    48 H    0.957
    17   7 N    3.485 --    16 C    1.426    30 C    0.997    18 C    0.987
    18   6 C    3.953 --    17 N    0.987    50 H    0.967    19 C    0.966
                            49 H    0.964
    19   6 C    3.976 --    20 C    1.008    52 H    0.972    51 H    0.971
                            18 C    0.966
    20   6 C    3.942 --    21 C    1.407    29 C    1.381    19 C    1.008
    21   6 C    3.948 --    22 C    1.418    20 C    1.407    53 H    0.968
    22   6 C    3.958 --    21 C    1.418    23 C    1.382    54 H    0.963
    23   6 C    3.893 --    22 C    1.382    26 C    1.218    24 O    1.112
    24   8 O    2.255 --    23 C    1.112    25 C    0.975
    25   6 C    3.927 --    57 H    0.977    24 O    0.975    56 H    0.972
                            55 H    0.972
    26   6 C    3.896 --    29 C    1.394    23 C    1.218    27 O    1.105
    27   8 O    2.254 --    26 C    1.105    28 C    0.978
    28   6 C    3.931 --    27 O    0.978    58 H    0.977    59 H    0.973
                            60 H    0.973
    29   6 C    3.958 --    26 C    1.394    20 C    1.381    61 H    0.962
    30   6 C    3.956 --    17 N    0.997    64 H    0.977    62 H    0.965
                            63 H    0.960
    31   6 C    3.975 --    32 C    1.015    33 C    0.972    65 H    0.969
                             3 C    0.946
    32   6 C    3.989 --    31 C    1.015    66 H    0.985    68 H    0.982
                            67 H    0.981
    33   6 C    3.973 --     1 N    1.031    31 C    0.972    71 H    0.953
                            70 H    0.952
    34   1 H    0.996 --     5 C    0.959
    35   1 H    0.994 --     8 C    0.974
    36   1 H    0.993 --     8 C    0.977
    37   1 H    0.994 --     8 C    0.973
    38   1 H    0.993 --    11 C    0.973
    39   1 H    0.993 --    11 C    0.977
    40   1 H    0.993 --    11 C    0.974
    41   1 H    0.996 --    12 C    0.964
    42   1 H    0.998 --    13 C    0.964
    43   1 H    0.994 --    14 C    0.966
    44   1 H    0.996 --    14 C    0.972
    45   1 H    0.995 --    15 C    0.963
    46   1 H    0.971 --    15 C    0.930
    47   1 H    0.997 --     2 C    0.953
    48   1 H    0.994 --    16 C    0.957
    49   1 H    0.991 --    18 C    0.964
    50   1 H    0.994 --    18 C    0.967
    51   1 H    0.995 --    19 C    0.971
    52   1 H    0.996 --    19 C    0.972
    53   1 H    0.997 --    21 C    0.968
    54   1 H    0.995 --    22 C    0.963
    55   1 H    0.991 --    25 C    0.972
    56   1 H    0.991 --    25 C    0.972
    57   1 H    0.992 --    25 C    0.977
    58   1 H    0.993 --    28 C    0.977
    59   1 H    0.993 --    28 C    0.973
    60   1 H    0.993 --    28 C    0.973
    61   1 H    0.996 --    29 C    0.962
    62   1 H    0.984 --    30 C    0.965
    63   1 H    0.987 --    30 C    0.960
    64   1 H    0.993 --    30 C    0.977
    65   1 H    0.997 --    31 C    0.969
    66   1 H    0.997 --    32 C    0.985
    67   1 H    0.996 --    32 C    0.981
    68   1 H    0.996 --    32 C    0.982
    69   1 H    0.999 --    72 H    0.995
    70   1 H    0.994 --    33 C    0.952
    71   1 H    0.992 --    33 C    0.953
    72   1 H    0.999 --    69 H    0.995
 ---------------------------------------------------------------------------

molecular dipole:
                 x           y           z       tot (Debye)
 q only:        0.535      -0.132      -0.911
   full:        0.281      -0.111      -1.167       3.063

           -------------------------------------------------
          | TOTAL ENERGY              -99.394544786618 Eh   |
          | GRADIENT NORM               0.001859850689 Eh/α |
          | HOMO-LUMO GAP               1.625780346088 eV   |
           -------------------------------------------------

 * finished run on 2024/04/06 at 11:14:54.923
