   * xtb version 6.6.1 (8d0f1dd) compiled by 'conda@1efc2f54142f' on 2023-08-01
          program call               : xtb xtbopt.xyz --opt crude --input .xc2 --gfn2

   ID    Z sym.   atoms
    1    7 N      1, 17
    2    6 C      2-6, 8, 9, 11-16, 18-23, 25, 26, 28-33
    3    8 O      7, 10, 24, 27
    4    1 H      34-72

          :  Hamiltonian                  GFN2-xTB          :
 * total energy  :   -99.3945520 Eh     change        0.2557954E-12 Eh
 * total energy  :   -99.3946887 Eh     change       -0.1366702E-03 Eh
   *** GEOMETRY OPTIMIZATION CONVERGED AFTER 2 ITERATIONS ***

 final structure:
================
72
 xtb: 6.6.1 (8d0f1dd)
N           -1.98609415645506        3.12866874505988        1.89596737763747
C           -1.87180343518571        2.09556248342785        1.19134761781727
C           -3.01895666023631        1.79009549775028        0.25019233256047
C           -3.49523477941741        0.36019012267688        0.33668214160330
C           -4.40387053326651       -0.13654901495605       -0.60028383889355
C           -4.86279933364382       -1.44156882562523       -0.53954825333153
O           -5.74724237680718       -1.99695558896209       -1.39456650787734
C           -6.35420443471909       -1.19130435295085       -2.37692748326142
C           -4.39065271655851       -2.30224726306293        0.48838231385212
O           -4.87055964586356       -3.56132407781552        0.45695094072773
C           -4.49244379635690       -4.46342611157955        1.47044151206426
C           -3.50319118115826       -1.79668476115845        1.42495420639553
C           -3.06734004874970       -0.47987102254487        1.35297267997976
C           -2.55840148366920        2.14732066778073       -1.18169651027595
C           -1.57096299414304        1.13564993030509       -1.79147791295644
C           -0.24344974274452        1.16279455473461       -1.14594561167363
N            0.39900123408530        0.11568999843950       -0.65378878723468
C            1.76866020850363        0.23976490556487       -0.21137942279334
C            2.75168497978076       -0.21747420918713       -1.30684413721878
C            4.17264708739568       -0.03913451036016       -0.85104651477547
C            4.82790104194735        1.16697581144343       -1.04095930659634
C            6.13848739797315        1.33653729751346       -0.62315393417742
C            6.82118924909380        0.30086380701356       -0.00094120217048
O            8.09383156658524        0.34728104031963        0.43209162241908
C            8.84659620060984        1.52190842544234        0.23294612682798
C            6.15268686456443       -0.93731766778088        0.21006406606855
O            6.88782779285356       -1.88737606400857        0.82028953281272
C            6.32523402531865       -3.15779126737940        1.04569358850237
C            4.84134758960907       -1.08231903397970       -0.21505227388819
C           -0.16663166416198       -1.21270140204150       -0.67526120451092
C           -4.07524347201599        2.83464392307479        0.74030202687364
C           -5.25307016539317        2.22409262068561        1.49010950032680
C           -3.25378034303775        3.76051954848161        1.67578978844301
H           -4.77030186521207        0.51584438433736       -1.37576036635962
H           -6.89327973099530       -0.35065392055450       -1.92938665483887
H           -7.06205760182770       -1.83948115130612       -2.88963565053000
H           -5.62244760637129       -0.81495430450588       -3.09924756042014
H           -4.78892882172198       -4.10306160786919        2.45988073262146
H           -5.02139204833588       -5.38856073819532        1.25031994258520
H           -3.41390171775984       -4.65127831450112        1.45780867423478
H           -3.14918984997821       -2.41860367853814        2.23095700819521
H           -2.40023698232967       -0.11189763035643        2.11732314403300
H           -3.42984267200891        2.20362582326565       -1.83471467716116
H           -2.09780082707064        3.13674591730764       -1.15931774543910
H           -2.01236148194642        0.14077215186028       -1.77406708513924
H           -1.43312296995741        1.42533913224494       -2.84065824516675
H           -0.97172779049249        1.50457825099314        1.23330564489192
H            0.26045885626949        2.11549042177085       -1.08336611210768
H            1.91285411242390       -0.36732351963526        0.68586424622314
H            1.97529662377678        1.28101329771054        0.04302764722404
H            2.57352279375203        0.37914210330612       -2.20335622888582
H            2.56678698701642       -1.26528889812011       -1.54699836576076
H            4.32312542177724        1.98441789963905       -1.53288316755385
H            6.62485330330333        2.28273343243952       -0.79417249811794
H            8.40813759492107        2.37349015533016        0.76180275216900
H            8.94114277666224        1.76060263742633       -0.83061995258631
H            9.83163701815134        1.31023001216431        0.64430345546827
H            7.10901078325809       -3.74384360265916        1.52161945062933
H            5.46053105936971       -3.10074657692010        1.71461581901990
H            6.03276864015038       -3.63957640741009        0.10753601936234
H            4.32988558812891       -2.02101035557883       -0.06957368729783
H           -0.25225191403567       -1.59177202851673       -1.69600669748518
H           -1.15771657221869       -1.21169623911654       -0.21607687443742
H            0.47425329851655       -1.88401273938150       -0.10939941959005
H           -4.45874005337618        3.40356380426490       -0.10902484917318
H           -4.90867271963046        1.64548483950823        2.34412509831749
H           -5.83689968632530        1.57155738759527        0.84614005845974
H           -5.90445947877316        3.01794189506411        1.84800627114619
H           -0.80307301400559        5.16931156216870       -0.49637770896787
H           -3.07355252265293        4.74710510193982        1.24186651718843
H           -3.73933153122233        3.91049871639733        2.64194655598911
H           -0.55762207697973        4.92389810261089        0.20515487858040

          :  Hamiltonian                  GFN2-xTB          :
         :: total energy             -99.394688676410 Eh    ::
         :: gradient norm              0.002488925324 Eh/a0 ::
         :: HOMO-LUMO gap              1.625608282402 eV    ::
         :: SCC energy              -100.781726385973 Eh    ::
         :: -> dispersion             -0.074949304788 Eh    ::
         :: repulsion energy           1.385806391894 Eh    ::

    * Orbital Energies and Occupations

         #    Occupation            Energy/Eh            Energy/eV
      -------------------------------------------------------------
         1        2.0000           -0.8095338             -22.0285
       ...           ...                  ...                  ...
        78        1.9988           -0.5349677             -14.5572
        79        1.9986           -0.5330825             -14.5059
        80        1.9982           -0.5287711             -14.3886
        81        1.9980           -0.5270761             -14.3425
        82        1.9975           -0.5238811             -14.2555
        83        1.9972           -0.5217965             -14.1988
        84        1.9968           -0.5198678             -14.1463
        85        1.9920           -0.5051472             -13.7458
        86        1.9805           -0.4909013             -13.3581
        87        1.9773           -0.4885073             -13.2930
        88        1.9390           -0.4725197             -12.8579
        89        1.8712           -0.4601273             -12.5207
        90        1.8353           -0.4559271             -12.4064 (HOMO)
        91        0.4079           -0.3961871             -10.7808 (LUMO)
        92        0.0077           -0.3298616              -8.9760
        93        0.0035           -0.3172889              -8.6339
        94        0.0029           -0.3143312              -8.5534
        95        0.0026           -0.3124188              -8.5013
        96        0.0022           -0.3101287              -8.4390
        97        0.0000           -0.1920195              -5.2251
        98        0.0000           -0.1875663              -5.1039
        99                         -0.1356187              -3.6904
       100                         -0.0780518              -2.1239
       101                         -0.0644499              -1.7538
       ...                                ...                  ...
       171                          0.5762895              15.6816
      -------------------------------------------------------------
                  HL-Gap            0.0597400 Eh            1.6256 eV

     #   Z          covCN         q      C6AA      α(0)
     1   7 N        1.835    -0.201    26.188     7.584
     2   6 C        2.968     0.063    26.579     8.456
     3   6 C        3.923    -0.000    20.523     6.438
     4   6 C        2.968     0.000    28.024     8.683
     5   6 C        2.920    -0.080    30.004     8.983
     6   6 C        2.862     0.129    25.177     8.225
     7   8 O        1.706    -0.231    17.834     5.702
     8   6 C        3.644     0.029    20.428     6.496
     9   6 C        2.864     0.129    25.171     8.224
    10   8 O        1.706    -0.229    17.791     5.695
    11   6 C        3.645     0.027    20.453     6.500
    12   6 C        2.914    -0.074    29.852     8.959
    13   6 C        2.922    -0.054    29.340     8.883
    14   6 C        3.809    -0.061    21.672     6.627
    15   6 C        3.802    -0.069    21.820     6.650
    16   6 C        2.845     0.008    27.838     8.647
    17   7 N        2.729     0.021    20.884     6.787
    18   6 C        3.756    -0.019    20.969     6.529
    19   6 C        3.808    -0.071    21.843     6.653
    20   6 C        2.968     0.000    28.016     8.682
    21   6 C        2.922    -0.048    29.190     8.860
    22   6 C        2.914    -0.067    29.663     8.931
    23   6 C        2.865     0.134    25.065     8.207
    24   8 O        1.706    -0.220    17.655     5.673
    25   6 C        3.645     0.024    20.498     6.507
    26   6 C        2.863     0.134    25.077     8.208
    27   8 O        1.706    -0.223    17.706     5.681
    28   6 C        3.645     0.027    20.460     6.501
    29   6 C        2.919    -0.079    29.977     8.978
    30   6 C        3.700    -0.073    22.061     6.717
    31   6 C        3.876    -0.024    20.951     6.508
    32   6 C        3.753    -0.109    22.633     6.784
    33   6 C        3.863     0.001    20.515     6.441
    34   1 H        0.926     0.050     2.325     2.385
    35   1 H        0.924     0.052     2.298     2.371
    36   1 H        0.925     0.081     1.969     2.195
    37   1 H        0.924     0.047     2.358     2.401
    38   1 H        0.924     0.055     2.257     2.350
    39   1 H        0.925     0.081     1.969     2.194
    40   1 H        0.924     0.048     2.343     2.394
    41   1 H        0.926     0.052     2.296     2.370
    42   1 H        0.926     0.042     2.420     2.433
    43   1 H        0.924     0.057     2.229     2.335
    44   1 H        0.924     0.051     2.311     2.377
    45   1 H        0.925     0.066     2.133     2.284
    46   1 H        0.924     0.081     1.969     2.194
    47   1 H        0.926     0.036     2.503     2.474
    48   1 H        0.926     0.074     2.047     2.237
    49   1 H        0.924     0.070     2.082     2.256
    50   1 H        0.924     0.072     2.063     2.246
    51   1 H        0.924     0.056     2.252     2.347
    52   1 H        0.924     0.056     2.248     2.345
    53   1 H        0.926     0.046     2.364     2.405
    54   1 H        0.926     0.060     2.203     2.321
    55   1 H        0.924     0.056     2.252     2.347
    56   1 H        0.924     0.056     2.243     2.342
    57   1 H        0.925     0.083     1.949     2.183
    58   1 H        0.925     0.082     1.955     2.187
    59   1 H        0.924     0.050     2.326     2.385
    60   1 H        0.924     0.053     2.288     2.366
    61   1 H        0.926     0.048     2.351     2.398
    62   1 H        0.924     0.078     2.004     2.214
    63   1 H        0.924     0.083     1.953     2.185
    64   1 H        0.925     0.081     1.970     2.195
    65   1 H        0.924     0.038     2.481     2.463
    66   1 H        0.925     0.044     2.398     2.422
    67   1 H        0.925     0.042     2.420     2.433
    68   1 H        0.925     0.051     2.305     2.374
    69   1 H        0.795    -0.007     3.256     2.836
    70   1 H        0.924     0.059     2.211     2.325
    71   1 H        0.924     0.069     2.092     2.262
    72   1 H        0.795     0.010     2.950     2.700

Wiberg/Mayer (AO) data.
largest (>0.10) Wiberg bond orders for each atom

     #   Z sym  total        # sym  WBO       # sym  WBO       # sym  WBO
 ---------------------------------------------------------------------------
     1   7 N    3.045 --     2 C    1.901    33 C    1.031
     2   6 C    3.954 --     1 N    1.901     3 C    0.971    47 H    0.953
     3   6 C    3.974 --     4 C    0.988     2 C    0.971    14 C    0.959
                            31 C    0.946
     4   6 C    3.950 --    13 C    1.414     5 C    1.367     3 C    0.988
     5   6 C    3.962 --     6 C    1.402     4 C    1.367    34 H    0.959
     6   6 C    3.904 --     5 C    1.402     9 C    1.222     7 O    1.097
     7   8 O    2.252 --     6 C    1.097     8 C    0.979
     8   6 C    3.933 --     7 O    0.979    36 H    0.977    35 H    0.974
                            37 H    0.973
     9   6 C    3.902 --    12 C    1.392     6 C    1.222    10 O    1.102
    10   8 O    2.253 --     9 C    1.102    11 C    0.978
    11   6 C    3.931 --    10 O    0.978    39 H    0.977    40 H    0.974
                            38 H    0.973
    12   6 C    3.962 --    13 C    1.404     9 C    1.392    41 H    0.964
    13   6 C    3.955 --     4 C    1.414    12 C    1.404    42 H    0.963
    14   6 C    3.967 --    15 C    0.974    44 H    0.972    43 H    0.966
                             3 C    0.959
    15   6 C    3.987 --    16 C    1.064    14 C    0.974    45 H    0.963
                            46 H    0.930
    16   6 C    3.576 --    17 N    1.426    15 C    1.064    48 H    0.957
    17   7 N    3.485 --    16 C    1.426    30 C    0.997    18 C    0.987
    18   6 C    3.953 --    17 N    0.987    50 H    0.967    19 C    0.966
                            49 H    0.964
    19   6 C    3.976 --    20 C    1.008    52 H    0.972    51 H    0.971
                            18 C    0.966
    20   6 C    3.942 --    21 C    1.407    29 C    1.381    19 C    1.008
    21   6 C    3.948 --    22 C    1.418    20 C    1.407    53 H    0.968
    22   6 C    3.958 --    21 C    1.418    23 C    1.382    54 H    0.963
    23   6 C    3.893 --    22 C    1.382    26 C    1.218    24 O    1.112
    24   8 O    2.255 --    23 C    1.112    25 C    0.975
    25   6 C    3.927 --    57 H    0.977    24 O    0.975    56 H    0.972
                            55 H    0.972
    26   6 C    3.896 --    29 C    1.394    23 C    1.218    27 O    1.105
    27   8 O    2.254 --    26 C    1.105    28 C    0.978
    28   6 C    3.931 --    27 O    0.978    58 H    0.977    59 H    0.973
                            60 H    0.973
    29   6 C    3.958 --    26 C    1.394    20 C    1.381    61 H    0.962
    30   6 C    3.956 --    17 N    0.997    64 H    0.977    62 H    0.965
                            63 H    0.960
    31   6 C    3.975 --    32 C    1.015    33 C    0.972    65 H    0.969
                             3 C    0.946
    32   6 C    3.989 --    31 C    1.015    66 H    0.985    68 H    0.982
                            67 H    0.981
    33   6 C    3.973 --     1 N    1.031    31 C    0.972    71 H    0.953
                            70 H    0.952
    34   1 H    0.996 --     5 C    0.959
    35   1 H    0.994 --     8 C    0.974
    36   1 H    0.993 --     8 C    0.977
    37   1 H    0.994 --     8 C    0.973
    38   1 H    0.993 --    11 C    0.973
    39   1 H    0.993 --    11 C    0.977
    40   1 H    0.993 --    11 C    0.974
    41   1 H    0.996 --    12 C    0.964
    42   1 H    0.998 --    13 C    0.963
    43   1 H    0.994 --    14 C    0.966
    44   1 H    0.996 --    14 C    0.972
    45   1 H    0.995 --    15 C    0.963
    46   1 H    0.971 --    15 C    0.930
    47   1 H    0.997 --     2 C    0.953
    48   1 H    0.994 --    16 C    0.957
    49   1 H    0.991 --    18 C    0.964
    50   1 H    0.994 --    18 C    0.967
    51   1 H    0.995 --    19 C    0.971
    52   1 H    0.996 --    19 C    0.972
    53   1 H    0.997 --    21 C    0.968
    54   1 H    0.995 --    22 C    0.963
    55   1 H    0.991 --    25 C    0.972
    56   1 H    0.991 --    25 C    0.972
    57   1 H    0.992 --    25 C    0.977
    58   1 H    0.993 --    28 C    0.977
    59   1 H    0.993 --    28 C    0.973
    60   1 H    0.993 --    28 C    0.973
    61   1 H    0.996 --    29 C    0.962
    62   1 H    0.984 --    30 C    0.965
    63   1 H    0.987 --    30 C    0.960
    64   1 H    0.993 --    30 C    0.977
    65   1 H    0.997 --    31 C    0.969
    66   1 H    0.997 --    32 C    0.985
    67   1 H    0.996 --    32 C    0.981
    68   1 H    0.996 --    32 C    0.982
    69   1 H    0.999 --    72 H    0.995
    70   1 H    0.994 --    33 C    0.952
    71   1 H    0.992 --    33 C    0.953
    72   1 H    0.999 --    69 H    0.995
 ---------------------------------------------------------------------------

molecular dipole:
                 x           y           z       tot (Debye)
 q only:        0.532      -0.134      -0.912
   full:        0.278      -0.113      -1.169       3.067

           -------------------------------------------------
          | TOTAL ENERGY              -99.394688676410 Eh   |
          | GRADIENT NORM               0.002488925324 Eh/α |
          | HOMO-LUMO GAP               1.625608282402 eV   |
           -------------------------------------------------

 * finished run on 2024/04/06 at 11:14:55.552
