   * xtb version 6.6.1 (8d0f1dd) compiled by 'conda@1efc2f54142f' on 2023-08-01
          program call               : xtb struc.xyz --opt loose --input .xc1 --gfn2

   ID    Z sym.   atoms
    1    6 C      1, 3, 5-7, 10, 11, 14
    2    7 N      2, 4, 9, 13
    3    8 O      8, 12
    4    1 H      15-25
constraining bond 13 23 to    4.0600000 Å, actual value:    2.0982917 Å

          :  Hamiltonian                  GFN2-xTB          :
 * total energy  :   -14.7628099 Eh     change       -0.6650680E-10 Eh
 * total energy  :   -30.1119748 Eh     change       -0.1534916E+02 Eh
 * total energy  :   -38.0175897 Eh     change       -0.7905615E+01 Eh
 * total energy  :   -41.2395430 Eh     change       -0.3221953E+01 Eh
 * total energy  :   -41.8081149 Eh     change       -0.5685719E+00 Eh
 * total energy  :   -41.8410377 Eh     change       -0.3292281E-01 Eh
 * total energy  :   -41.8668823 Eh     change       -0.2584456E-01 Eh
 * total energy  :   -41.8789664 Eh     change       -0.1208407E-01 Eh
 * total energy  :   -41.9004251 Eh     change       -0.2145870E-01 Eh
 * total energy  :   -41.9141692 Eh     change       -0.1374415E-01 Eh
 * total energy  :   -42.1026425 Eh     change       -0.1867418E-03 Eh
 * total energy  :   -42.1030336 Eh     change       -0.3910600E-03 Eh
 * total energy  :   -42.1031983 Eh     change       -0.1647320E-03 Eh
 * total energy  :   -42.1033726 Eh     change       -0.1742922E-03 Eh
 * total energy  :   -42.1034572 Eh     change       -0.8459873E-04 Eh
 * total energy  :   -42.1035053 Eh     change       -0.4807392E-04 Eh
 * total energy  :   -42.1035476 Eh     change       -0.4233955E-04 Eh
 * total energy  :   -42.1035788 Eh     change       -0.3119984E-04 Eh
 * total energy  :   -42.1035930 Eh     change       -0.1416517E-04 Eh
   *** GEOMETRY OPTIMIZATION CONVERGED AFTER 36 ITERATIONS ***

 final structure:
================
25
 xtb: 6.6.1 (8d0f1dd)
C            3.22815571734853        1.18133854549620       -0.01798034944637
N            2.27098113491212        0.10775104161798        0.03809150035489
C            2.53992528267807       -1.19155140403921        0.09218283373644
N            1.39322764318824       -1.89930268407877        0.15446352950705
C            0.34911881674940       -1.00886291713267        0.13960599181480
C            0.90659034279558        0.26161648610100        0.06719105493438
C            0.09751714496148        1.46114835716682        0.01105145035560
O            0.51621918868405        2.59338048587450       -0.06538631821964
N           -1.26539940812102        1.15187196916103        0.05352435910395
C           -2.20185247805581        2.27129063963436       -0.00279987669839
C           -1.86106301129047       -0.07806024964044        0.11926235516955
O           -3.04504263248584       -0.24875355102866        0.13349868103500
N           -0.98398624082089       -1.24282028052885        0.17628749400559
C           -1.55690531446768       -2.45276853925446        0.24926136603552
H            3.75905220268733        1.26357584451777        0.93130933530537
H            3.95204172565603        1.00078076481767       -0.81143656281753
H            2.69746236571274        2.11429543233811       -0.20671250264149
H            3.52168685587087       -1.62327412867651        0.08417136104941
H           -1.62372244499177        3.19180071569413       -0.01886608329246
H           -2.81417805346240        2.19582939911142       -0.90032652055661
H           -2.85553379150723        2.24827369696086        0.86743838514806
H           -0.95917768767560       -3.34338966426590        0.27208352798179
H           -1.60409987823217       -4.73940403837166       -1.79175260924784
H           -2.63049192524287       -2.48967928812635        0.26375713693435
H            1.32990595920937       -2.90684809174838        0.19325207834862

          :  Hamiltonian                  GFN2-xTB          :
         :: total energy             -42.103592985354 Eh    ::
         :: gradient norm              0.003668010880 Eh/a0 ::
         :: HOMO-LUMO gap              0.281513808215 eV    ::
         :: SCC energy               -42.627016032881 Eh    ::
         :: -> dispersion             -0.022706060616 Eh    ::
         :: repulsion energy           0.523321635326 Eh    ::

    * Orbital Energies and Occupations

         #    Occupation            Energy/Eh            Energy/eV
      -------------------------------------------------------------
         1        2.0000           -0.9213624             -25.0715
       ...           ...                  ...                  ...
        25        2.0000           -0.6725190             -18.3002
        26        2.0000           -0.6723571             -18.2958
        27        2.0000           -0.6631858             -18.0462
        28        1.9999           -0.6390294             -17.3889
        29        1.9998           -0.6353398             -17.2885
        30        1.9998           -0.6315244             -17.1847
        31        1.9996           -0.6231295             -16.9562
        32        1.9985           -0.6018977             -16.3785
        33        1.9975           -0.5936861             -16.1550
        34        1.9966           -0.5889787             -16.0269
        35        1.9873           -0.5680889             -15.4585
        36        1.9859           -0.5663994             -15.4125
        37        1.1280           -0.4921124             -13.3911 (HOMO)
        38        0.8046           -0.4817670             -13.1095 (LUMO)
        39        0.0914           -0.4399231             -11.9709
        40        0.0094           -0.4032263             -10.9723
        41        0.0018           -0.3773758             -10.2689
        42        0.0000           -0.2925689              -7.9612
        43                         -0.2167924              -5.8992
        44                         -0.2044933              -5.5645
        45                         -0.1548490              -4.2137
        46                         -0.1383645              -3.7651
        47                         -0.0708512              -1.9280
        48                         -0.0434358              -1.1819
       ...                                ...                  ...
        67                          0.5529588              15.0468
      -------------------------------------------------------------
                  HL-Gap            0.0103454 Eh            0.2815 eV

     #   Z          covCN         q      C6AA      α(0)
     1   6 C        3.691    -0.097    22.547     6.795
     2   7 N        2.832     0.087    19.736     6.598
     3   6 C        3.054     0.055    26.714     8.476
     4   7 N        2.790    -0.055    22.299     7.013
     5   6 C        3.042     0.094    25.883     8.344
     6   6 C        3.115    -0.015    28.233     8.704
     7   6 C        2.763     0.268    22.481     7.765
     8   8 O        0.858    -0.362    20.940     6.135
     9   7 N        2.744    -0.077    22.739     7.082
    10   6 C        3.713    -0.065    21.881     6.684
    11   6 C        2.733     0.311    21.715     7.629
    12   8 O        0.859    -0.333    20.394     6.055
    13   7 N        2.735     0.011    21.072     6.818
    14   6 C        2.798    -0.053    29.303     8.868
    15   1 H        0.924     0.112     1.682     2.028
    16   1 H        0.925     0.108     1.713     2.047
    17   1 H        0.925     0.140     1.463     1.891
    18   1 H        0.926     0.130     1.537     1.939
    19   1 H        0.925     0.117     1.638     2.001
    20   1 H        0.925     0.099     1.790     2.092
    21   1 H        0.925     0.100     1.781     2.087
    22   1 H        0.926     0.094     1.843     2.123
    23   1 H        0.000    -0.036     9.358     5.593
    24   1 H        0.926     0.137     1.481     1.903
    25   1 H        0.860     0.232     0.958     1.533

Wiberg/Mayer (AO) data.
largest (>0.10) Wiberg bond orders for each atom

     #   Z sym  total        # sym  WBO       # sym  WBO       # sym  WBO
 ---------------------------------------------------------------------------
     1   6 C    3.911 --     2 N    0.984    16 H    0.962    17 H    0.959
                            15 H    0.955
     2   7 N    3.677 --     3 C    1.388     6 C    1.167     1 C    0.984
     3   6 C    3.848 --     2 N    1.388     4 N    1.290    18 H    0.951
     4   7 N    3.559 --     3 C    1.290     5 C    1.168    25 H    0.917
     5   6 C    3.888 --     6 C    1.342     4 N    1.168    13 N    1.162
     6   6 C    3.859 --     5 C    1.342     2 N    1.167     7 C    1.071
     7   6 C    3.918 --     8 O    1.678     9 N    1.084     6 C    1.071
     8   8 O    1.992 --     7 C    1.678     9 N    0.138
     9   7 N    3.569 --    11 C    1.168     7 C    1.084    10 C    0.962
                            12 O    0.151     8 O    0.138
    10   6 C    3.909 --    19 H    0.967    21 H    0.966    20 H    0.965
                             9 N    0.962
    11   6 C    3.925 --    12 O    1.731     9 N    1.168    13 N    0.931
    12   8 O    2.060 --    11 C    1.731     9 N    0.151
    13   7 N    3.624 --    14 C    1.307     5 C    1.162    11 C    0.931
    14   6 C    3.355 --    13 N    1.307    22 H    0.966    24 H    0.958
    15   1 H    0.984 --     1 C    0.955
    16   1 H    0.986 --     1 C    0.962
    17   1 H    0.980 --     1 C    0.959
    18   1 H    0.982 --     3 C    0.951
    19   1 H    0.985 --    10 C    0.967
    20   1 H    0.986 --    10 C    0.965
    21   1 H    0.986 --    10 C    0.966
    22   1 H    0.990 --    14 C    0.966
    23   1 H    0.024
    24   1 H    0.980 --    14 C    0.958
    25   1 H    0.946 --     4 N    0.917
 ---------------------------------------------------------------------------

molecular dipole:
                 x           y           z       tot (Debye)
 q only:        2.633      -1.478       0.343
   full:        2.894      -2.070       0.359       9.090

           -------------------------------------------------
          | TOTAL ENERGY              -42.103592985354 Eh   |
          | GRADIENT NORM               0.003668010880 Eh/α |
          | HOMO-LUMO GAP               0.281513808215 eV   |
           -------------------------------------------------

 * finished run on 2024/06/05 at 20:00:19.252
