   * xtb version 6.6.1 (8d0f1dd) compiled by 'conda@1efc2f54142f' on 2023-08-01
          program call               : xtb struc.xyz --opt loose --input .xc1 --gfn2

   ID    Z sym.   atoms
    1    6 C      1, 3, 5-7, 10, 11, 14
    2    7 N      2, 4, 9, 13
    3    8 O      8, 12
    4    1 H      15-25
constraining bond 3 15 to    5.1400000 Å, actual value:    2.8727362 Å

          :  Hamiltonian                  GFN2-xTB          :
 * total energy  :   -33.0815491 Eh     change       -0.2401990E-09 Eh
 * total energy  :   -36.9011468 Eh     change       -0.3819598E+01 Eh
 * total energy  :   -39.6874159 Eh     change       -0.2786269E+01 Eh
 * total energy  :   -41.2685937 Eh     change       -0.1581178E+01 Eh
 * total energy  :   -41.8655449 Eh     change       -0.5969512E+00 Eh
 * total energy  :   -41.9485924 Eh     change       -0.8304750E-01 Eh
 * total energy  :   -41.9631353 Eh     change       -0.1454293E-01 Eh
 * total energy  :   -41.9833797 Eh     change       -0.2024441E-01 Eh
 * total energy  :   -41.9957973 Eh     change       -0.1241757E-01 Eh
 * total energy  :   -42.0024944 Eh     change       -0.6697173E-02 Eh
 * total energy  :   -42.1260186 Eh     change       -0.1237906E-03 Eh
 * total energy  :   -42.1260941 Eh     change       -0.7556765E-04 Eh
 * total energy  :   -42.1262020 Eh     change       -0.1078385E-03 Eh
 * total energy  :   -42.1262745 Eh     change       -0.7246894E-04 Eh
 * total energy  :   -42.1263607 Eh     change       -0.8622990E-04 Eh
 * total energy  :   -42.1264332 Eh     change       -0.7250267E-04 Eh
 * total energy  :   -42.1264896 Eh     change       -0.5638190E-04 Eh
 * total energy  :   -42.1265550 Eh     change       -0.6543359E-04 Eh
 * total energy  :   -42.1265884 Eh     change       -0.3340777E-04 Eh
   *** GEOMETRY OPTIMIZATION CONVERGED AFTER 59 ITERATIONS ***

 final structure:
================
25
 xtb: 6.6.1 (8d0f1dd)
C            3.13045174839537        1.55305680959244        0.03285118003170
N            2.37718650801707        0.37609321297432        0.00706128769773
C            2.48952314730511       -2.60602070625928       -0.28492391267202
N            1.24437389449365       -2.30960707830074       -0.13819037499186
C            0.51905021696335       -1.12003068316836       -0.05021273412017
C            1.09498198323677        0.18203918244318       -0.00623908742069
C            0.15604938134595        1.35004717255741        0.03883513305396
O            0.55044614964292        2.49776266476575        0.03807519534583
N           -1.18459438567831        1.05622580788584        0.08488006426632
C           -2.13865428062497        2.15231646774375        0.14309956897338
C           -1.73421224116730       -0.20679460907678        0.07874430620520
O           -2.92694680129219       -0.37675667919314        0.13336673187088
N           -0.84408594017560       -1.27774594833304       -0.00187400528715
C           -1.46847737900574       -2.59082770870891       -0.03827058834353
H            2.57559411013849        2.50468097292021        0.19754491774752
H            3.89049713037784        1.44579667894741        0.81473462026605
H            3.66201736755169        1.63713107635434       -0.92075220920770
H            3.25909948569003       -1.85002499605004       -0.35098782553137
H           -1.58987622198377        3.09164748544196        0.15492722998843
H           -2.79970141138136        2.11050026349512       -0.72383000860745
H           -2.75036585350127        2.05846985652547        1.04147400926484
H           -1.19272787909788       -3.19034247567451        0.83219276889497
H           -1.24177615796896       -3.11503594352078       -0.96887483245151
H           -2.54792914382942       -2.42831720249530        0.00103553961534
H            0.63050808663064       -3.12602507928277       -0.08349535669054

          :  Hamiltonian                  GFN2-xTB          :
         :: total energy             -42.126588407597 Eh    ::
         :: gradient norm              0.002652506892 Eh/a0 ::
         :: HOMO-LUMO gap              0.176561740360 eV    ::
         :: SCC energy               -42.629272941673 Eh    ::
         :: -> dispersion             -0.022086448239 Eh    ::
         :: repulsion energy           0.502494386076 Eh    ::

    * Orbital Energies and Occupations

         #    Occupation            Energy/Eh            Energy/eV
      -------------------------------------------------------------
         1        2.0000           -0.8955702             -24.3697
       ...           ...                  ...                  ...
        25        1.9981           -0.6736033             -18.3297
        26        1.9972           -0.6650153             -18.0960
        27        1.9947           -0.6493922             -17.6709
        28        1.9931           -0.6430715             -17.4989
        29        1.9901           -0.6345847             -17.2679
        30        1.9876           -0.6292305             -17.1222
        31        1.9837           -0.6226338             -16.9427
        32        1.9717           -0.6094060             -16.5828
        33        1.9588           -0.6003323             -16.3359
        34        1.9457           -0.5935810             -16.1522
        35        1.9193           -0.5838554             -15.8875
        36        1.6295           -0.5437787             -14.7970
        37        1.2807           -0.5222994             -14.2125 (HOMO)
        38        1.1507           -0.5158109             -14.0359 (LUMO)
        39        0.1732           -0.4526394             -12.3169
        40        0.0220           -0.4017777             -10.9329
        41        0.0107           -0.3845345             -10.4637
        42        0.0003           -0.2995531              -8.1513
        43        0.0000           -0.2092969              -5.6953
        44        0.0000           -0.1678731              -4.5681
        45        0.0000           -0.1511921              -4.1141
        46                         -0.0944982              -2.5714
        47                         -0.0853284              -2.3219
        48                         -0.0495165              -1.3474
       ...                                ...                  ...
        67                          0.5244154              14.2701
      -------------------------------------------------------------
                  HL-Gap            0.0064885 Eh            0.1766 eV

     #   Z          covCN         q      C6AA      α(0)
     1   6 C        3.686    -0.050    21.679     6.666
     2   7 N        1.831    -0.126    24.507     7.336
     3   6 C        1.841    -0.063    32.860     9.260
     4   7 N        2.687     0.001    21.251     6.847
     5   6 C        2.832     0.084    26.116     8.374
     6   6 C        2.884     0.052    26.832     8.492
     7   6 C        2.769     0.262    22.589     7.784
     8   8 O        0.859    -0.328    20.285     6.038
     9   7 N        2.739    -0.061    22.413     7.031
    10   6 C        3.709    -0.061    21.816     6.675
    11   6 C        2.727     0.315    21.644     7.616
    12   8 O        0.860    -0.347    20.658     6.094
    13   7 N        2.743    -0.046    22.134     6.987
    14   6 C        3.702    -0.082    22.225     6.741
    15   1 H        0.921     0.139     1.466     1.894
    16   1 H        0.924     0.123     1.591     1.972
    17   1 H        0.924     0.125     1.572     1.961
    18   1 H        0.926     0.129     1.542     1.942
    19   1 H        0.925     0.122     1.594     1.974
    20   1 H        0.924     0.114     1.663     2.017
    21   1 H        0.924     0.115     1.656     2.012
    22   1 H        0.924     0.096     1.825     2.113
    23   1 H        0.924     0.096     1.821     2.111
    24   1 H        0.924     0.142     1.447     1.881
    25   1 H        0.859     0.248     0.892     1.479

Wiberg/Mayer (AO) data.
largest (>0.10) Wiberg bond orders for each atom

     #   Z sym  total        # sym  WBO       # sym  WBO       # sym  WBO
 ---------------------------------------------------------------------------
     1   6 C    3.840 --     2 N    1.109    16 H    0.912    17 H    0.902
                            15 H    0.872
     2   7 N    2.755 --     6 C    1.512     1 C    1.109
     3   6 C    2.597 --     4 N    1.575    18 H    0.908
     4   7 N    3.625 --     3 C    1.575     5 C    1.097    25 H    0.867
     5   6 C    3.645 --     6 C    1.207    13 N    1.181     4 N    1.097
     6   6 C    3.871 --     2 N    1.512     5 C    1.207     7 C    0.957
     7   6 C    3.850 --     8 O    1.665     9 N    1.139     6 C    0.957
     8   8 O    1.948 --     7 C    1.665     9 N    0.119
     9   7 N    3.502 --     7 C    1.139    11 C    1.107    10 C    0.969
                             8 O    0.119    12 O    0.110
    10   6 C    3.863 --     9 N    0.969    19 H    0.957    21 H    0.947
                            20 H    0.947
    11   6 C    3.924 --    12 O    1.659     9 N    1.107    13 N    1.075
    12   8 O    1.954 --    11 C    1.659     9 N    0.110    13 N    0.108
    13   7 N    3.462 --     5 C    1.181    11 C    1.075    14 C    0.979
                            12 O    0.108
    14   6 C    3.902 --    13 N    0.979    23 H    0.956    22 H    0.955
                            24 H    0.946
    15   1 H    0.904 --     1 C    0.872
    16   1 H    0.938 --     1 C    0.912
    17   1 H    0.934 --     1 C    0.902
    18   1 H    0.935 --     3 C    0.908
    19   1 H    0.974 --    10 C    0.957
    20   1 H    0.965 --    10 C    0.947
    21   1 H    0.965 --    10 C    0.947
    22   1 H    0.977 --    14 C    0.955
    23   1 H    0.977 --    14 C    0.956
    24   1 H    0.974 --    14 C    0.946
    25   1 H    0.917 --     4 N    0.867
 ---------------------------------------------------------------------------

molecular dipole:
                 x           y           z       tot (Debye)
 q only:        1.190      -1.413      -0.066
   full:        1.084      -1.232      -0.058       4.174

           -------------------------------------------------
          | TOTAL ENERGY              -42.126588407597 Eh   |
          | GRADIENT NORM               0.002652506892 Eh/α |
          | HOMO-LUMO GAP               0.176561740360 eV   |
           -------------------------------------------------

 * finished run on 2024/06/05 at 19:58:44.920
