   * xtb version 6.6.1 (8d0f1dd) compiled by 'conda@1efc2f54142f' on 2023-08-01
          program call               : xtb xtbopt.xyz --opt crude --input .xc2 --gfn2

   ID    Z sym.   atoms
    1    6 C      1, 3, 5-7, 10, 11, 14
    2    7 N      2, 4, 9, 13
    3    8 O      8, 12
    4    1 H      15-25
########################################################################
[WARNING] Please study the warnings concerning your input carefully
-1- readin_getIntValue: could not parse ''
########################################################################

          :  Hamiltonian                  GFN2-xTB          :
 * total energy  :   -42.1266496 Eh     change       -0.3202416E-10 Eh
 * total energy  :   -42.1293436 Eh     change       -0.2693994E-02 Eh
 * total energy  :   -42.1314226 Eh     change       -0.2079042E-02 Eh
 * total energy  :   -42.1317073 Eh     change       -0.2846506E-03 Eh
   *** GEOMETRY OPTIMIZATION CONVERGED AFTER 4 ITERATIONS ***

 final structure:
================
25
 xtb: 6.6.1 (8d0f1dd)
C            3.15792794156932        1.41844360119253        0.00597883905707
N            2.35641766027532        0.27855874412900       -0.02594196450007
C            2.55600605226601       -2.34899143468351       -0.23444103056394
N            1.27235510732968       -2.24050213404751       -0.13316340978137
C            0.47065024769003       -1.11283715288957       -0.05245900817157
C            1.06304813949183        0.16963503885976       -0.01607795496738
C            0.15011494479745        1.34859974567347        0.04458766741097
O            0.55782409435939        2.49247022064400        0.05662894729190
N           -1.19440243179516        1.05724129697987        0.08819117020453
C           -2.14135125382505        2.16027457756255        0.14918537384809
C           -1.76118427760778       -0.20228517701335        0.07477145143824
O           -2.95480007653648       -0.36190541385077        0.12603465985345
N           -0.88255942605640       -1.28317566195818       -0.00583752098644
C           -1.48676215561019       -2.60293302437195       -0.03998238091253
H            2.56702259665388        2.32863132549265        0.17568286432471
H            3.90704346228171        1.31021062251106        0.79689569256136
H            3.69472511032908        1.51930562747149       -0.94461191172164
H            3.22874974683589       -1.50240752040641       -0.28147633520651
H           -1.58593105893197        3.09581780038084        0.16275586607789
H           -2.80239657636428        2.12576299793891       -0.71830104500065
H           -2.75421028707690        2.06900609826840        1.04715681289618
H           -1.19417609463255       -3.19447662803571        0.83003762483334
H           -1.24282552784301       -3.12436858719535       -0.96757628260198
H           -2.56861703420444       -2.46000867514999       -0.00335363738148
H            0.74776261068669       -3.12182774591869       -0.10351287010398

          :  Hamiltonian                  GFN2-xTB          :
         :: total energy             -42.131707273810 Eh    ::
         :: gradient norm              0.007330712688 Eh/a0 ::
         :: HOMO-LUMO gap              0.117251295633 eV    ::
         :: SCC energy               -42.639065604813 Eh    ::
         :: -> dispersion             -0.022307654756 Eh    ::
         :: repulsion energy           0.507227784474 Eh    ::

    * Orbital Energies and Occupations

         #    Occupation            Energy/Eh            Energy/eV
      -------------------------------------------------------------
         1        2.0000           -0.8954384             -24.3661
       ...           ...                  ...                  ...
        25        1.9982           -0.6752155             -18.3735
        26        1.9981           -0.6732559             -18.3202
        27        1.9947           -0.6494026             -17.6711
        28        1.9931           -0.6427580             -17.4903
        29        1.9911           -0.6368696             -17.3301
        30        1.9879           -0.6294546             -17.1283
        31        1.9836           -0.6222854             -16.9332
        32        1.9724           -0.6097637             -16.5925
        33        1.9606           -0.6011718             -16.3587
        34        1.9494           -0.5950718             -16.1927
        35        1.9189           -0.5834929             -15.8776
        36        1.7210           -0.5515729             -15.0091
        37        1.2032           -0.5181476             -14.0995 (HOMO)
        38        1.1149           -0.5138387             -13.9823 (LUMO)
        39        0.1858           -0.4542339             -12.3603
        40        0.0226           -0.4021435             -10.9429
        41        0.0112           -0.3853756             -10.4866
        42        0.0003           -0.2984084              -8.1201
        43        0.0000           -0.2073408              -5.6420
        44        0.0000           -0.1628803              -4.4322
        45        0.0000           -0.1492833              -4.0622
        46                         -0.0934402              -2.5426
        47                         -0.0796317              -2.1669
        48                         -0.0379105              -1.0316
       ...                                ...                  ...
        67                          0.5250152              14.2864
      -------------------------------------------------------------
                  HL-Gap            0.0043089 Eh            0.1173 eV

     #   Z          covCN         q      C6AA      α(0)
     1   6 C        3.690    -0.051    21.686     6.664
     2   7 N        1.836    -0.130    24.604     7.351
     3   6 C        1.847    -0.067    32.989     9.278
     4   7 N        2.688     0.006    21.155     6.831
     5   6 C        2.850     0.085    26.092     8.372
     6   6 C        2.891     0.048    26.922     8.507
     7   6 C        2.768     0.262    22.585     7.783
     8   8 O        0.858    -0.328    20.299     6.041
     9   7 N        2.739    -0.063    22.456     7.038
    10   6 C        3.709    -0.061    21.813     6.675
    11   6 C        2.726     0.315    21.646     7.617
    12   8 O        0.860    -0.345    20.609     6.087
    13   7 N        2.741    -0.043    22.070     6.977
    14   6 C        3.700    -0.079    22.177     6.734
    15   1 H        0.923     0.138     1.477     1.900
    16   1 H        0.924     0.120     1.616     1.988
    17   1 H        0.924     0.122     1.601     1.979
    18   1 H        0.925     0.148     1.405     1.854
    19   1 H        0.925     0.122     1.594     1.974
    20   1 H        0.924     0.114     1.665     2.018
    21   1 H        0.924     0.115     1.657     2.013
    22   1 H        0.924     0.095     1.833     2.117
    23   1 H        0.924     0.095     1.832     2.116
    24   1 H        0.924     0.139     1.470     1.896
    25   1 H        0.859     0.245     0.905     1.490

Wiberg/Mayer (AO) data.
largest (>0.10) Wiberg bond orders for each atom

     #   Z sym  total        # sym  WBO       # sym  WBO       # sym  WBO
 ---------------------------------------------------------------------------
     1   6 C    3.846 --     2 N    1.099    16 H    0.916    17 H    0.907
                            15 H    0.876
     2   7 N    2.789 --     6 C    1.493     1 C    1.099
     3   6 C    2.607 --     4 N    1.560    18 H    0.878
     4   7 N    3.628 --     3 C    1.560     5 C    1.107    25 H    0.875
     5   6 C    3.669 --     6 C    1.214    13 N    1.187     4 N    1.107
     6   6 C    3.872 --     2 N    1.493     5 C    1.214     7 C    0.966
     7   6 C    3.853 --     8 O    1.661     9 N    1.136     6 C    0.966
     8   8 O    1.954 --     7 C    1.661     9 N    0.121
     9   7 N    3.502 --     7 C    1.136    11 C    1.104    10 C    0.970
                             8 O    0.121    12 O    0.111
    10   6 C    3.863 --     9 N    0.970    19 H    0.957    21 H    0.947
                            20 H    0.947
    11   6 C    3.924 --    12 O    1.664     9 N    1.104    13 N    1.071
    12   8 O    1.958 --    11 C    1.664     9 N    0.111    13 N    0.108
    13   7 N    3.466 --     5 C    1.187    11 C    1.071    14 C    0.979
                            12 O    0.108
    14   6 C    3.902 --    13 N    0.979    23 H    0.958    22 H    0.957
                            24 H    0.951
    15   1 H    0.913 --     1 C    0.876
    16   1 H    0.941 --     1 C    0.916
    17   1 H    0.937 --     1 C    0.907
    18   1 H    0.934 --     3 C    0.878
    19   1 H    0.974 --    10 C    0.957
    20   1 H    0.965 --    10 C    0.947
    21   1 H    0.965 --    10 C    0.947
    22   1 H    0.977 --    14 C    0.957
    23   1 H    0.978 --    14 C    0.958
    24   1 H    0.975 --    14 C    0.951
    25   1 H    0.919 --     4 N    0.875
 ---------------------------------------------------------------------------

molecular dipole:
                 x           y           z       tot (Debye)
 q only:        1.235      -1.510      -0.081
   full:        1.089      -1.372      -0.075       4.456

           -------------------------------------------------
          | TOTAL ENERGY              -42.131707273810 Eh   |
          | GRADIENT NORM               0.007330712688 Eh/α |
          | HOMO-LUMO GAP               0.117251295633 eV   |
           -------------------------------------------------

 * finished run on 2024/06/05 at 19:58:45.170
