   * xtb version 6.6.1 (8d0f1dd) compiled by 'conda@1efc2f54142f' on 2023-08-01
          program call               : xtb struc.xyz --opt loose --input .xc1 --gfn2

   ID    Z sym.   atoms
    1    6 C      1, 3, 5-7, 10, 11, 14
    2    7 N      2, 4, 9, 13
    3    8 O      8, 12
    4    1 H      15-25
constraining bond 13 14 to    3.9200000 Å, actual value:    1.4502802 Å

          :  Hamiltonian                  GFN2-xTB          :
 * total energy  :   -31.3569774 Eh     change       -0.6650680E-10 Eh
 * total energy  :   -35.3461821 Eh     change       -0.3989205E+01 Eh
 * total energy  :   -38.7080949 Eh     change       -0.3361913E+01 Eh
 * total energy  :   -40.7297466 Eh     change       -0.2021652E+01 Eh
 * total energy  :   -41.4920434 Eh     change       -0.7622968E+00 Eh
 * total energy  :   -41.6057495 Eh     change       -0.1137062E+00 Eh
 * total energy  :   -41.6286126 Eh     change       -0.2286303E-01 Eh
 * total energy  :   -41.6840701 Eh     change       -0.5545752E-01 Eh
 * total energy  :   -41.7328145 Eh     change       -0.4874440E-01 Eh
 * total energy  :   -41.7784348 Eh     change       -0.4562035E-01 Eh
 * total energy  :   -42.2015750 Eh     change       -0.2595264E-03 Eh
 * total energy  :   -42.2017082 Eh     change       -0.1331877E-03 Eh
 * total energy  :   -42.2018264 Eh     change       -0.1181777E-03 Eh
 * total energy  :   -42.2019075 Eh     change       -0.8113843E-04 Eh
 * total energy  :   -42.2019441 Eh     change       -0.3651007E-04 Eh
 * total energy  :   -42.2020113 Eh     change       -0.6728385E-04 Eh
 * total energy  :   -42.2020624 Eh     change       -0.5104782E-04 Eh
 * total energy  :   -42.2021252 Eh     change       -0.6285629E-04 Eh
 * total energy  :   -42.2021550 Eh     change       -0.2980052E-04 Eh
   *** GEOMETRY OPTIMIZATION CONVERGED AFTER 96 ITERATIONS ***

 final structure:
================
25
 xtb: 6.6.1 (8d0f1dd)
C            3.15179469868943        1.97393080112079        0.01114831244478
N            2.68538215934490        0.61498086333502        0.11002484600702
C            3.42738497213841       -0.47556859260465        0.25945767550986
N            2.64529310930708       -1.57014651129390        0.30582074414498
C            1.34483579626075       -1.16711988972073        0.18002106320111
C            1.37291986414810        0.21779594950374        0.05647821348268
C            0.14495692315896        0.94089703498452       -0.07170315023635
O            0.02147526588357        2.13959926832755       -0.16644934862059
N           -0.98331722001926        0.06684007269479       -0.07459954077167
C           -2.24749397911004        0.78791928901714       -0.18184270945750
C           -0.93494122563523       -1.30532348637947        0.03441175857753
O           -2.04590661407747       -2.03643779035145        0.01041702594010
N            0.27648594257980       -1.93273454960999        0.17674790927239
C           -3.60023871581664       -1.83938668192904       -0.14976896147785
H            3.77124997405563        2.22542053638446        0.87231971849833
H            3.74024187724403        2.10770262452884       -0.89725637163064
H            2.28745119345948        2.63672764637963       -0.02279382570050
H            4.49784520859583       -0.48453465573378        0.33212396767403
H           -1.99979000735157        1.83829136605545       -0.34019496265686
H           -2.82855777035557        0.43900470597182       -1.02969284035280
H           -2.81233537136124        0.71040709920517        0.74512949443577
H           -3.93957121032443       -2.84508468926993        0.07189591611444
H           -3.79655370467304       -1.57789560512792       -1.18326663038154
H           -3.96639373162231       -1.11906136598574        0.56836760908176
H            2.94821407957771       -2.52798489790476        0.41437570479673

          :  Hamiltonian                  GFN2-xTB          :
         :: total energy             -42.202155044829 Eh    ::
         :: gradient norm              0.002353734434 Eh/a0 ::
         :: HOMO-LUMO gap              3.205282532217 eV    ::
         :: SCC energy               -42.708984230987 Eh    ::
         :: -> dispersion             -0.021941570895 Eh    ::
         :: repulsion energy           0.505376555045 Eh    ::

    * Orbital Energies and Occupations

         #    Occupation            Energy/Eh            Energy/eV
      -------------------------------------------------------------
         1        2.0000           -0.8946483             -24.3446
       ...           ...                  ...                  ...
        25        2.0000           -0.6631959             -18.0465
        26        2.0000           -0.6491958             -17.6655
        27        2.0000           -0.6478450             -17.6288
        28        1.9999           -0.6438244             -17.5194
        29        1.9998           -0.6280693             -17.0906
        30        1.9998           -0.6209135             -16.8959
        31        1.9996           -0.6143773             -16.7181
        32        1.9994           -0.6066373             -16.5074
        33        1.9989           -0.5967732             -16.2390
        34        1.9941           -0.5699831             -15.5100
        35        1.9894           -0.5607014             -15.2575
        36        1.9733           -0.5459557             -14.8562
        37        1.9640           -0.5411420             -14.7252 (HOMO)
        38        0.0621           -0.4233501             -11.5199 (LUMO)
        39        0.0176           -0.4030225             -10.9668
        40        0.0021           -0.3688727             -10.0375
        41        0.0000           -0.3061395              -8.3305
        42        0.0000           -0.2732218              -7.4347
        43                         -0.1875801              -5.1043
        44                         -0.1717535              -4.6737
        45                         -0.1212809              -3.3002
        46                         -0.0804221              -2.1884
        47                         -0.0556747              -1.5150
        48                         -0.0303187              -0.8250
       ...                                ...                  ...
        67                          0.5384112              14.6509
      -------------------------------------------------------------
                  HL-Gap            0.1177920 Eh            3.2053 eV

     #   Z          covCN         q      C6AA      α(0)
     1   6 C        3.691    -0.091    22.436     6.778
     2   7 N        2.828     0.080    19.851     6.617
     3   6 C        3.068     0.060    26.593     8.456
     4   7 N        2.797    -0.052    22.244     7.005
     5   6 C        3.074     0.148    24.716     8.151
     6   6 C        3.129    -0.028    28.497     8.740
     7   6 C        2.775     0.272    22.413     7.754
     8   8 O        0.858    -0.380    21.281     6.185
     9   7 N        2.740    -0.088    22.946     7.114
    10   6 C        3.703    -0.065    21.909     6.692
    11   6 C        2.745     0.305    21.826     7.650
    12   8 O        1.657    -0.233    17.879     5.708
    13   7 N        1.831    -0.260    27.614     7.787
    14   6 C        3.577     0.003    21.286     6.702
    15   1 H        0.924     0.103     1.755     2.072
    16   1 H        0.924     0.105     1.742     2.064
    17   1 H        0.925     0.131     1.526     1.932
    18   1 H        0.926     0.123     1.589     1.971
    19   1 H        0.924     0.122     1.594     1.974
    20   1 H        0.925     0.082     1.961     2.190
    21   1 H        0.925     0.079     1.989     2.205
    22   1 H        0.925     0.132     1.519     1.927
    23   1 H        0.925     0.108     1.718     2.050
    24   1 H        0.926     0.107     1.720     2.051
    25   1 H        0.860     0.238     0.932     1.512

Wiberg/Mayer (AO) data.
largest (>0.10) Wiberg bond orders for each atom

     #   Z sym  total        # sym  WBO       # sym  WBO       # sym  WBO
 ---------------------------------------------------------------------------
     1   6 C    3.920 --     2 N    0.984    17 H    0.964    15 H    0.963
                            16 H    0.959
     2   7 N    3.693 --     3 C    1.396     6 C    1.159     1 C    0.984
     3   6 C    3.882 --     2 N    1.396     4 N    1.305    18 H    0.952
     4   7 N    3.604 --     3 C    1.305     5 C    1.169    25 H    0.916
     5   6 C    3.956 --    13 N    1.323     6 C    1.299     4 N    1.169
     6   6 C    3.915 --     5 C    1.299     2 N    1.159     7 C    1.118
     7   6 C    3.947 --     8 O    1.680     6 C    1.118     9 N    1.045
     8   8 O    2.041 --     7 C    1.680     9 N    0.141
     9   7 N    3.573 --    11 C    1.215     7 C    1.045    10 C    0.973
                             8 O    0.141
    10   6 C    3.925 --     9 N    0.973    20 H    0.969    21 H    0.968
                            19 H    0.958
    11   6 C    3.925 --    13 N    1.317    12 O    1.238     9 N    1.215
    12   8 O    2.331 --    11 C    1.238    14 C    0.861
    13   7 N    2.990 --     5 C    1.323    11 C    1.317
    14   6 C    3.837 --    23 H    0.975    24 H    0.975    22 H    0.971
                            12 O    0.861
    15   1 H    0.987 --     1 C    0.963
    16   1 H    0.987 --     1 C    0.959
    17   1 H    0.983 --     1 C    0.964
    18   1 H    0.984 --     3 C    0.952
    19   1 H    0.984 --    10 C    0.958
    20   1 H    0.991 --    10 C    0.969
    21   1 H    0.991 --    10 C    0.968
    22   1 H    0.982 --    14 C    0.971
    23   1 H    0.986 --    14 C    0.975
    24   1 H    0.987 --    14 C    0.975
    25   1 H    0.943 --     4 N    0.916
 ---------------------------------------------------------------------------

molecular dipole:
                 x           y           z       tot (Debye)
 q only:        1.536      -0.960       0.123
   full:        1.756      -0.951       0.137       5.088

           -------------------------------------------------
          | TOTAL ENERGY              -42.202155044829 Eh   |
          | GRADIENT NORM               0.002353734434 Eh/α |
          | HOMO-LUMO GAP               3.205282532217 eV   |
           -------------------------------------------------

 * finished run on 2024/06/05 at 19:58:02.092
