   * xtb version 6.6.1 (8d0f1dd) compiled by 'conda@1efc2f54142f' on 2023-08-01
          program call               : xtb xtbopt.xyz --opt crude --input .xc2 --gfn2

   ID    Z sym.   atoms
    1    6 C      1, 3, 5-7, 10, 11, 14
    2    7 N      2, 4, 9, 13
    3    8 O      8, 12
    4    1 H      15-25
########################################################################
[WARNING] Please study the warnings concerning your input carefully
-1- readin_getIntValue: could not parse ''
########################################################################

          :  Hamiltonian                  GFN2-xTB          :
 * total energy  :   -42.2035981 Eh     change       -0.5684342E-13 Eh
 * total energy  :   -42.2163477 Eh     change       -0.1274956E-01 Eh
 * total energy  :   -42.2222264 Eh     change       -0.5878689E-02 Eh
 * total energy  :   -42.2226632 Eh     change       -0.4368082E-03 Eh
   *** GEOMETRY OPTIMIZATION CONVERGED AFTER 4 ITERATIONS ***

 final structure:
================
25
 xtb: 6.6.1 (8d0f1dd)
C            3.13427255232305        1.94498786180761        0.01368394971919
N            2.65018888554665        0.59204255083954        0.10987951937493
C            3.37517682653727       -0.51021257443607        0.25796053764507
N            2.57652322745660       -1.59310549376576        0.30016037345880
C            1.28124638376305       -1.17192954810286        0.17345300584102
C            1.33268347079606        0.21305650321824        0.05288326706153
C            0.11775890176168        0.96480173265393       -0.07865550464166
O            0.01917356227625        2.16531131387233       -0.17358341676937
N           -1.02763707839866        0.11803917241277       -0.08215656042258
C           -2.28503746852332        0.85021346411681       -0.19057993175473
C           -0.96594078876924       -1.24911256036780        0.03010240703113
O           -1.97307097072040       -2.07375677934413        0.03207576537950
N            0.17362166690199       -1.90052274613936        0.16006090856023
C           -3.37318611037653       -1.87874228534260       -0.12776553972802
H            3.75572005627180        2.18891317583516        0.87507016979377
H            3.72601428065773        2.07330633120968       -0.89347840938152
H            2.27861600285639        2.61844663176112       -0.02049337684606
H            4.44572738281484       -0.53206025337677        0.33341763643083
H           -2.02693108918439        1.89760841023047       -0.34875990212736
H           -2.86754709614166        0.50692394970448       -1.03937915620319
H           -2.85244882902379        0.77814252677409        0.73466889339683
H           -3.79439957203811       -2.86565269751887        0.06845976075505
H           -3.62288006176492       -1.59271358875498       -1.15005447930902
H           -3.79173294042694       -1.17301163240759        0.58621373094880
H            2.87452031950148       -2.55273492328188        0.40798796968202

          :  Hamiltonian                  GFN2-xTB          :
         :: total energy             -42.222663191367 Eh    ::
         :: gradient norm              0.005972516233 Eh/a0 ::
         :: HOMO-LUMO gap              3.249019577801 eV    ::
         :: SCC energy               -42.741244935554 Eh    ::
         :: -> dispersion             -0.022164390339 Eh    ::
         :: repulsion energy           0.518563802267 Eh    ::

    * Orbital Energies and Occupations

         #    Occupation            Energy/Eh            Energy/eV
      -------------------------------------------------------------
         1        2.0000           -0.8973364             -24.4178
       ...           ...                  ...                  ...
        25        2.0000           -0.6657833             -18.1169
        26        2.0000           -0.6538141             -17.7912
        27        2.0000           -0.6515397             -17.7293
        28        1.9999           -0.6455168             -17.5654
        29        1.9998           -0.6296441             -17.1335
        30        1.9997           -0.6217664             -16.9191
        31        1.9995           -0.6118810             -16.6501
        32        1.9994           -0.6083911             -16.5552
        33        1.9983           -0.5917787             -16.1031
        34        1.9925           -0.5682592             -15.4631
        35        1.9899           -0.5635526             -15.3350
        36        1.9764           -0.5500880             -14.9687
        37        1.9669           -0.5446238             -14.8200 (HOMO)
        38        0.0611           -0.4252245             -11.5709 (LUMO)
        39        0.0149           -0.4024655             -10.9516
        40        0.0017           -0.3682267             -10.0200
        41        0.0000           -0.2740421              -7.4571
        42                         -0.1915372              -5.2120
        43                         -0.1808202              -4.9204
        44                         -0.1525310              -4.1506
        45                         -0.1198691              -3.2618
        46                         -0.0755846              -2.0568
        47                         -0.0496581              -1.3513
        48                         -0.0260878              -0.7099
       ...                                ...                  ...
        67                          0.5387028              14.6588
      -------------------------------------------------------------
                  HL-Gap            0.1193993 Eh            3.2490 eV

     #   Z          covCN         q      C6AA      α(0)
     1   6 C        3.691    -0.092    22.452     6.781
     2   7 N        2.827     0.081    19.832     6.614
     3   6 C        3.068     0.059    26.604     8.458
     4   7 N        2.797    -0.050    22.202     6.998
     5   6 C        3.095     0.144    24.771     8.157
     6   6 C        3.132    -0.027    28.466     8.734
     7   6 C        2.774     0.272    22.399     7.751
     8   8 O        0.858    -0.377    21.231     6.178
     9   7 N        2.741    -0.092    23.030     7.127
    10   6 C        3.701    -0.065    21.918     6.695
    11   6 C        2.778     0.307    21.791     7.646
    12   8 O        1.716    -0.178    16.987     5.565
    13   7 N        1.844    -0.262    27.666     7.795
    14   6 C        3.627     0.005    20.920     6.589
    15   1 H        0.925     0.104     1.747     2.067
    16   1 H        0.924     0.106     1.734     2.059
    17   1 H        0.925     0.132     1.518     1.927
    18   1 H        0.926     0.125     1.577     1.964
    19   1 H        0.924     0.122     1.597     1.976
    20   1 H        0.925     0.083     1.952     2.185
    21   1 H        0.925     0.080     1.977     2.199
    22   1 H        0.924     0.115     1.657     2.013
    23   1 H        0.924     0.085     1.926     2.170
    24   1 H        0.925     0.085     1.929     2.172
    25   1 H        0.860     0.239     0.928     1.509

Wiberg/Mayer (AO) data.
largest (>0.10) Wiberg bond orders for each atom

     #   Z sym  total        # sym  WBO       # sym  WBO       # sym  WBO
 ---------------------------------------------------------------------------
     1   6 C    3.919 --     2 N    0.984    17 H    0.964    15 H    0.963
                            16 H    0.959
     2   7 N    3.694 --     3 C    1.396     6 C    1.162     1 C    0.984
     3   6 C    3.882 --     2 N    1.396     4 N    1.306    18 H    0.952
     4   7 N    3.607 --     3 C    1.306     5 C    1.176    25 H    0.916
     5   6 C    3.955 --     6 C    1.313    13 N    1.292     4 N    1.176
     6   6 C    3.916 --     5 C    1.313     2 N    1.162     7 C    1.110
     7   6 C    3.947 --     8 O    1.685     6 C    1.110     9 N    1.050
     8   8 O    2.045 --     7 C    1.685     9 N    0.144
     9   7 N    3.565 --    11 C    1.196     7 C    1.050    10 C    0.971
                             8 O    0.144
    10   6 C    3.923 --     9 N    0.971    20 H    0.970    21 H    0.968
                            19 H    0.959
    11   6 C    3.936 --    13 N    1.366    12 O    1.222     9 N    1.196
    12   8 O    2.390 --    11 C    1.222    14 C    0.930
    13   7 N    3.007 --    11 C    1.366     5 C    1.292
    14   6 C    3.883 --    24 H    0.969    22 H    0.969    23 H    0.968
                            12 O    0.930
    15   1 H    0.987 --     1 C    0.963
    16   1 H    0.987 --     1 C    0.959
    17   1 H    0.982 --     1 C    0.964
    18   1 H    0.984 --     3 C    0.952
    19   1 H    0.984 --    10 C    0.959
    20   1 H    0.991 --    10 C    0.970
    21   1 H    0.991 --    10 C    0.968
    22   1 H    0.985 --    14 C    0.969
    23   1 H    0.989 --    14 C    0.968
    24   1 H    0.990 --    14 C    0.969
    25   1 H    0.942 --     4 N    0.916
 ---------------------------------------------------------------------------

molecular dipole:
                 x           y           z       tot (Debye)
 q only:        1.802      -0.968       0.150
   full:        1.981      -0.959       0.162       5.611

           -------------------------------------------------
          | TOTAL ENERGY              -42.222663191367 Eh   |
          | GRADIENT NORM               0.005972516233 Eh/α |
          | HOMO-LUMO GAP               3.249019577801 eV   |
           -------------------------------------------------

 * finished run on 2024/06/05 at 19:58:02.307
