   * xtb version 6.6.1 (8d0f1dd) compiled by 'conda@1efc2f54142f' on 2023-08-01
          program call               : xtb struc.xyz --opt loose --input .xc1 --gfn2

   ID    Z sym.   atoms
    1    7 N      1, 17
    2    6 C      2-6, 8, 9, 11-16, 18-23, 25, 26, 28-33
    3    8 O      7, 10, 24, 27
    4    1 H      34-72
constraining bond 6 65 to    5.7133300 Å, actual value:    3.9991266 Å

          :  Hamiltonian                  GFN2-xTB          :
 * total energy  :   -99.9288083 Eh     change       -0.4035485E-08 Eh
 * total energy  :  -100.3532453 Eh     change       -0.4244370E+00 Eh
 * total energy  :  -100.8507017 Eh     change       -0.4974564E+00 Eh
 * total energy  :  -101.4598035 Eh     change       -0.6091018E+00 Eh
 * total energy  :  -102.1881467 Eh     change       -0.7283432E+00 Eh
 * total energy  :  -103.0284180 Eh     change       -0.8402713E+00 Eh
 * total energy  :   -99.3143568 Eh     change        0.3714061E+01 Eh
 * total energy  :  -103.2631697 Eh     change       -0.3948813E+01 Eh
 * total energy  :  -103.3615885 Eh     change       -0.9841885E-01 Eh
 * total energy  :  -103.4483549 Eh     change       -0.8676640E-01 Eh
 * total energy  :  -103.5769861 Eh     change       -0.1431029E-03 Eh
 * total energy  :  -103.5771081 Eh     change       -0.1219860E-03 Eh
 * total energy  :  -103.5772459 Eh     change       -0.1378761E-03 Eh
 * total energy  :  -103.5774031 Eh     change       -0.1571610E-03 Eh
 * total energy  :  -103.5775320 Eh     change       -0.1289278E-03 Eh
 * total energy  :  -103.5776032 Eh     change       -0.7121267E-04 Eh
 * total energy  :  -103.5776540 Eh     change       -0.5077789E-04 Eh
 * total energy  :  -103.5776897 Eh     change       -0.3571749E-04 Eh
 * total energy  :  -103.5777303 Eh     change       -0.4058495E-04 Eh
   *** GEOMETRY OPTIMIZATION CONVERGED AFTER 92 ITERATIONS ***

 final structure:
================
72
 xtb: 6.6.1 (8d0f1dd)
N           -1.77592705946071        3.11488188286107        2.59864774200456
C           -1.74158833580489        2.41239693747797        1.56400257544173
C           -2.90170437216103        2.32589424757761        0.58906789238555
C           -3.40517815055009        0.88144050297247        0.53080733850022
C           -4.29862142961454        0.53080202377964       -0.43760290255740
C           -4.67025936783613       -0.89593203382658       -0.71527122991285
O           -3.64808789393724       -1.32340311818703       -1.72229335749087
C           -4.08230575942649       -2.38416559560925       -2.53716932528841
C           -4.41149773847502       -1.75224616649567        0.51236953442708
O           -5.05308894063290       -2.93413504617829        0.43119346635916
C           -4.88949231828360       -3.88252740779036        1.46412437406173
C           -3.55731166447005       -1.34987755513953        1.50218753292791
C           -3.00566611848280       -0.06296420449561        1.49129515727929
C           -2.34409149401247        2.75550447037245       -0.79313608207646
C           -1.53271633005199        1.67570012089316       -1.53216810073289
C           -0.23335253945057        1.36410483690597       -0.89984353520865
N            0.24829901655541        0.14710721928332       -0.68453601369431
C            1.61338666659054       -0.02317983418225       -0.24821444560092
C            2.54564163915808       -0.39940781906171       -1.41770233570846
C            3.98189762177093       -0.25235002099234       -0.99994247400816
C            4.62999967235838        0.96271396292529       -1.14636091708269
C            5.94828202184996        1.11810991403221       -0.74681986332057
C            6.64406944493519        0.05849770769108       -0.18456050420548
O            7.92552831585188        0.09338938629832        0.23151778961617
C            8.66550944433365        1.28099258593373        0.06712058242582
C            5.98437157750380       -1.18966614823269       -0.02004212621923
O            6.73420331588405       -2.16389912613657        0.53694514506628
C            6.18097164531671       -3.44666959711262        0.70570895242046
C            4.66658074832837       -1.32180843014186       -0.42755745805412
C           -0.47197423305959       -1.04933525408191       -1.04591889899575
C           -4.03022276061787        3.19210314174733        1.05603384297703
C           -4.69082902210871        2.85736625137156        2.32782469238202
C           -4.39975349014759        4.44698168168821        0.37266032284464
H           -4.67838041625349        1.25221075368283       -1.14229207480403
H           -4.35886326035847       -3.26077061244015       -1.94345260464644
H           -3.24003846792955       -2.63482458901611       -3.17983832275930
H           -4.93564633617773       -2.09045986452045       -3.15700349981996
H           -5.22856558234972       -3.48127852446697        2.42256714512565
H           -5.50743271697686       -4.73318699371263        1.18535348167896
H           -3.84648430659338       -4.19988457630295        1.54899663965611
H           -3.31720943781394       -2.00551938390374        2.32428466495492
H           -2.32143347188862        0.21330149510043        2.27772932579413
H           -3.17783862383564        3.02347730179182       -1.43865259646023
H           -1.72539026435535        3.64517411177413       -0.65897859063289
H           -2.14191544947470        0.78299364775030       -1.66348372787779
H           -1.32254990653882        2.08031942394942       -2.53116518450765
H           -0.87563251349044        1.82343358362368        1.22575406469530
H            0.42668662278571        2.18929036040724       -0.67510302325088
H            1.65213890986044       -0.80316482884895        0.51631316604578
H            1.96860429414986        0.90891724748108        0.19629011067835
H            2.33907286073146        0.27042973520016       -2.25470309455817
H            2.34476738649345       -1.42262418364881       -1.73613792688839
H            4.11325425636996        1.80056452917794       -1.58989590778547
H            6.42813376689359        2.07310340407851       -0.88438044943836
H            8.23186640471904        2.10663031278969        0.63978504598773
H            8.73723891446112        1.56519353646959       -0.98712343037781
H            9.66009361699975        1.06048231612522        0.44974628691477
H            6.97370516205445       -4.05078750156521        1.14276945368600
H            5.32395783570117       -3.42854753628150        1.38681001746830
H            5.87954858518946       -3.88336079924939       -0.25148602989860
H            4.16009214705949       -2.26775238082016       -0.31596713348086
H           -0.46825385237228       -1.19714295650189       -2.12841743725378
H           -1.51117983552786       -0.99910337431636       -0.71862206476468
H            0.00120366402831       -1.90673900804101       -0.57444145542737
H           -5.32108368383531       -0.97937953218180       -0.98851307590469
H           -4.16769981930314        3.37922011730384        3.13760251979535
H           -4.64363396963457        1.79325023080811        2.54791512123865
H           -5.72619708920883        3.19281048966640        2.33589595570100
H           -3.51965399554269        5.04159741714828        0.12529957132322
H           -4.92281650443204        4.25171504172004       -0.56842780255804
H           -5.06103771013158        5.03896515318570        0.99917691967402
H           -0.93998372831939        3.12916644291964        3.17469341430172

          :  Hamiltonian                  GFN2-xTB          :
         :: total energy            -103.577730309078 Eh    ::
         :: gradient norm              0.003729191970 Eh/a0 ::
         :: HOMO-LUMO gap              0.353353008988 eV    ::
         :: SCC energy              -100.712921276635 Eh    ::
         :: -> dispersion             -0.076103772692 Eh    ::
         :: repulsion energy           1.602157557905 Eh    ::

    * Orbital Energies and Occupations

         #    Occupation            Energy/Eh            Energy/eV
      -------------------------------------------------------------
         1        2.0000           -0.8145629             -22.1654
       ...           ...                  ...                  ...
        78        1.9994           -0.5328248             -14.4989
        79        1.9991           -0.5272755             -14.3479
        80        1.9989           -0.5248685             -14.2824
        81        1.9989           -0.5236688             -14.2498
        82        1.9987           -0.5214936             -14.1906
        83        1.9986           -0.5203528             -14.1595
        84        1.9977           -0.5124163             -13.9436
        85        1.9902           -0.4894429             -13.3184
        86        1.9828           -0.4805613             -13.0767
        87        1.9819           -0.4796654             -13.0524
        88        1.9781           -0.4766485             -12.9703
        89        1.8743           -0.4481327             -12.1943
        90        1.0744           -0.4077100             -11.0944 (HOMO)
        91        0.6766           -0.3947246             -10.7410 (LUMO)
        92        0.4163           -0.3841919             -10.4544
        93        0.0282           -0.3381193              -9.2007
        94        0.0034           -0.3046156              -8.2890
        95        0.0034           -0.3041865              -8.2773
        96        0.0029           -0.3018771              -8.2145
        97        0.0000           -0.2369795              -6.4485
        98        0.0000           -0.1790797              -4.8730
        99                         -0.1221739              -3.3245
       100                         -0.0839405              -2.2841
       101                         -0.0751151              -2.0440
       ...                                ...                  ...
       171                          1.7183565              46.7589
      -------------------------------------------------------------
                  HL-Gap            0.0129855 Eh            0.3534 eV

     #   Z          covCN         q      C6AA      α(0)
     1   7 N        1.774    -0.293    28.399     7.891
     2   6 C        2.828     0.098    25.812     8.325
     3   6 C        3.912     0.008    20.389     6.418
     4   6 C        2.964     0.006    27.874     8.660
     5   6 C        2.912    -0.074    29.841     8.958
     6   6 C        3.737     0.078    19.360     6.279
     7   8 O        1.687    -0.356    20.007     6.039
     8   6 C        3.635     0.040    20.280     6.480
     9   6 C        2.853     0.122    25.319     8.247
    10   8 O        1.705    -0.237    17.931     5.717
    11   6 C        3.644     0.026    20.471     6.504
    12   6 C        2.899    -0.074    29.850     8.958
    13   6 C        2.920    -0.058    29.447     8.899
    14   6 C        3.810    -0.066    21.760     6.640
    15   6 C        3.802    -0.075    21.930     6.667
    16   6 C        2.844     0.004    27.921     8.660
    17   7 N        2.729     0.016    20.978     6.802
    18   6 C        3.758    -0.016    20.916     6.520
    19   6 C        3.808    -0.070    21.835     6.652
    20   6 C        2.969    -0.002    28.071     8.691
    21   6 C        2.923    -0.051    29.259     8.871
    22   6 C        2.914    -0.069    29.715     8.939
    23   6 C        2.865     0.132    25.118     8.215
    24   8 O        1.706    -0.227    17.763     5.690
    25   6 C        3.646     0.027    20.460     6.501
    26   6 C        2.863     0.132    25.119     8.215
    27   8 O        1.706    -0.229    17.800     5.696
    28   6 C        3.645     0.028    20.432     6.497
    29   6 C        2.919    -0.080    29.998     8.982
    30   6 C        3.700    -0.077    22.136     6.728
    31   6 C        2.950     0.033    27.254     8.562
    32   6 C        3.755    -0.125    22.952     6.831
    33   6 C        3.754    -0.120    22.859     6.817
    34   1 H        0.926     0.044     2.400     2.423
    35   1 H        0.924     0.044     2.397     2.421
    36   1 H        0.925     0.057     2.239     2.340
    37   1 H        0.924     0.038     2.481     2.463
    38   1 H        0.924     0.057     2.233     2.337
    39   1 H        0.925     0.079     1.994     2.208
    40   1 H        0.924     0.053     2.280     2.361
    41   1 H        0.926     0.045     2.379     2.412
    42   1 H        0.926     0.033     2.544     2.494
    43   1 H        0.925     0.066     2.133     2.284
    44   1 H        0.924     0.049     2.336     2.390
    45   1 H        0.925     0.088     1.901     2.156
    46   1 H        0.923     0.079     1.986     2.204
    47   1 H        0.923     0.013     2.839     2.635
    48   1 H        0.926     0.064     2.152     2.294
    49   1 H        0.924     0.066     2.128     2.281
    50   1 H        0.924     0.065     2.143     2.289
    51   1 H        0.924     0.053     2.278     2.361
    52   1 H        0.924     0.055     2.256     2.349
    53   1 H        0.926     0.041     2.429     2.437
    54   1 H        0.926     0.055     2.254     2.348
    55   1 H        0.924     0.052     2.300     2.371
    56   1 H        0.924     0.053     2.277     2.360
    57   1 H        0.925     0.080     1.979     2.200
    58   1 H        0.925     0.080     1.983     2.202
    59   1 H        0.924     0.047     2.358     2.401
    60   1 H        0.924     0.051     2.312     2.378
    61   1 H        0.926     0.046     2.369     2.407
    62   1 H        0.924     0.078     1.995     2.209
    63   1 H        0.924     0.101     1.778     2.085
    64   1 H        0.925     0.075     2.031     2.229
    65   1 H        0.931     0.108     1.716     2.048
    66   1 H        0.924     0.113     1.672     2.022
    67   1 H        0.925     0.064     2.148     2.292
    68   1 H        0.925     0.074     2.046     2.237
    69   1 H        0.924     0.074     2.041     2.234
    70   1 H        0.924     0.077     2.014     2.219
    71   1 H        0.925     0.074     2.042     2.234
    72   1 H        0.860     0.158     1.346     1.818

Wiberg/Mayer (AO) data.
largest (>0.10) Wiberg bond orders for each atom

     #   Z sym  total        # sym  WBO       # sym  WBO       # sym  WBO
 ---------------------------------------------------------------------------
     1   7 N    3.015 --     2 C    1.951    72 H    0.942
     2   6 C    3.894 --     1 N    1.951     3 C    0.954    47 H    0.915
     3   6 C    3.983 --    31 C    1.020    14 C    0.958     2 C    0.954
                             4 C    0.933
     4   6 C    3.946 --     5 C    1.574    13 C    1.293     3 C    0.933
     5   6 C    3.701 --     4 C    1.574     6 C    1.019    34 H    0.967
     6   6 C    3.937 --     5 C    1.019     9 C    0.984    65 H    0.968
                             7 O    0.876
     7   8 O    1.976 --     8 C    0.998     6 C    0.876
     8   6 C    3.942 --     7 O    0.998    37 H    0.978    35 H    0.975
                            36 H    0.973
     9   6 C    3.704 --    12 C    1.488    10 O    1.114     6 C    0.984
    10   8 O    2.227 --     9 C    1.114    11 C    0.971
    11   6 C    3.931 --    39 H    0.978    40 H    0.974    38 H    0.974
                            10 O    0.971
    12   6 C    3.953 --     9 C    1.488    13 C    1.336    41 H    0.961
    13   6 C    3.679 --    12 C    1.336     4 C    1.293    42 H    0.964
    14   6 C    3.973 --    15 C    0.984    44 H    0.973    43 H    0.967
                             3 C    0.958
    15   6 C    3.982 --    16 C    1.061    14 C    0.984    45 H    0.954
                            46 H    0.927
    16   6 C    3.573 --    17 N    1.408    15 C    1.061    48 H    0.957
    17   7 N    3.475 --    16 C    1.408    30 C    0.997    18 C    0.990
    18   6 C    3.957 --    17 N    0.990    50 H    0.968    19 C    0.966
                            49 H    0.964
    19   6 C    3.976 --    20 C    1.008    52 H    0.973    51 H    0.972
                            18 C    0.966
    20   6 C    3.951 --    21 C    1.413    29 C    1.379    19 C    1.008
    21   6 C    3.956 --    22 C    1.415    20 C    1.413    53 H    0.968
    22   6 C    3.964 --    21 C    1.415    23 C    1.388    54 H    0.964
    23   6 C    3.902 --    22 C    1.388    26 C    1.225    24 O    1.104
    24   8 O    2.254 --    23 C    1.104    25 C    0.977
    25   6 C    3.931 --    24 O    0.977    57 H    0.977    56 H    0.973
                            55 H    0.973
    26   6 C    3.905 --    29 C    1.398    23 C    1.225    27 O    1.098
    27   8 O    2.254 --    26 C    1.098    28 C    0.980
    28   6 C    3.934 --    27 O    0.980    58 H    0.977    59 H    0.974
                            60 H    0.974
    29   6 C    3.962 --    26 C    1.398    20 C    1.379    61 H    0.963
    30   6 C    3.951 --    17 N    0.997    64 H    0.978    62 H    0.963
                            63 H    0.957
    31   6 C    3.318 --    32 C    1.098    33 C    1.084     3 C    1.020
    32   6 C    3.973 --    31 C    1.098    67 H    0.967    68 H    0.962
                            66 H    0.903
    33   6 C    3.981 --    31 C    1.084    71 H    0.975    69 H    0.949
                            70 H    0.932
    34   1 H    0.997 --     5 C    0.967
    35   1 H    0.995 --     8 C    0.975
    36   1 H    0.992 --     8 C    0.973
    37   1 H    0.996 --     8 C    0.978
    38   1 H    0.991 --    11 C    0.974
    39   1 H    0.993 --    11 C    0.978
    40   1 H    0.992 --    11 C    0.974
    41   1 H    0.996 --    12 C    0.961
    42   1 H    0.998 --    13 C    0.964
    43   1 H    0.994 --    14 C    0.967
    44   1 H    0.997 --    14 C    0.973
    45   1 H    0.992 --    15 C    0.954
    46   1 H    0.969 --    15 C    0.927
    47   1 H    0.989 --     2 C    0.915
    48   1 H    0.995 --    16 C    0.957
    49   1 H    0.991 --    18 C    0.964
    50   1 H    0.995 --    18 C    0.968
    51   1 H    0.996 --    19 C    0.972
    52   1 H    0.996 --    19 C    0.973
    53   1 H    0.998 --    21 C    0.968
    54   1 H    0.995 --    22 C    0.964
    55   1 H    0.993 --    25 C    0.973
    56   1 H    0.993 --    25 C    0.973
    57   1 H    0.993 --    25 C    0.977
    58   1 H    0.993 --    28 C    0.977
    59   1 H    0.994 --    28 C    0.974
    60   1 H    0.994 --    28 C    0.974
    61   1 H    0.997 --    29 C    0.963
    62   1 H    0.982 --    30 C    0.963
    63   1 H    0.984 --    30 C    0.957
    64   1 H    0.994 --    30 C    0.978
    65   1 H    0.983 --     6 C    0.968
    66   1 H    0.937 --    32 C    0.903
    67   1 H    0.988 --    32 C    0.967
    68   1 H    0.981 --    32 C    0.962
    69   1 H    0.970 --    33 C    0.949
    70   1 H    0.956 --    33 C    0.932
    71   1 H    0.992 --    33 C    0.975
    72   1 H    0.971 --     1 N    0.942
 ---------------------------------------------------------------------------

molecular dipole:
                 x           y           z       tot (Debye)
 q only:       -0.918       0.810      -0.084
   full:       -0.760       0.523      -0.222       2.412

           -------------------------------------------------
          | TOTAL ENERGY             -103.577730309078 Eh   |
          | GRADIENT NORM               0.003729191970 Eh/α |
          | HOMO-LUMO GAP               0.353353008988 eV   |
           -------------------------------------------------

 * finished run on 2024/04/06 at 11:16:15.134
