   * xtb version 6.6.1 (8d0f1dd) compiled by 'conda@1efc2f54142f' on 2023-08-01
          program call               : xtb xtbopt.xyz --opt crude --input .xc2 --gfn2

   ID    Z sym.   atoms
    1    7 N      1, 17
    2    6 C      2-6, 8, 9, 11-16, 18-23, 25, 26, 28-33
    3    8 O      7, 10, 24, 27
    4    1 H      34-72
########################################################################
[WARNING] Please study the warnings concerning your input carefully
-1- readin_getIntValue: could not parse ''
########################################################################

          :  Hamiltonian                  GFN2-xTB          :
 * total energy  :   -99.1093317 Eh     change       -0.6522782E-11 Eh
 * total energy  :   -99.3218471 Eh     change       -0.2125153E+00 Eh
 * total energy  :   -99.3247225 Eh     change       -0.2875444E-02 Eh
 * total energy  :   -99.3256965 Eh     change       -0.9740209E-03 Eh
 * total energy  :   -99.3259822 Eh     change       -0.2856824E-03 Eh
 * total energy  :   -99.3261678 Eh     change       -0.1856377E-03 Eh
   *** GEOMETRY OPTIMIZATION CONVERGED AFTER 6 ITERATIONS ***

 final structure:
================
72
 xtb: 6.6.1 (8d0f1dd)
N           -1.77420015003305        3.12410209858893        2.60414954889996
C           -1.73693011641780        2.41906317423085        1.57106361439630
C           -2.89779281747785        2.32919668945635        0.59553998268991
C           -3.39630851677084        0.88208297406998        0.53433445936316
C           -4.27008557928754        0.52623689030400       -0.44984753915294
C           -4.59236020308249       -0.90418925761660       -0.71831355110178
O           -3.65051871687715       -1.32406022195638       -1.74419427027692
C           -4.08599919736976       -2.40281584697717       -2.53748824136344
C           -4.38847649692092       -1.76168559545980        0.50356966948825
O           -5.03088285441495       -2.94286331905354        0.42415803245171
C           -4.89085674429222       -3.87832127026656        1.47263946929966
C           -3.55851882321233       -1.34789887043969        1.50813220424727
C           -3.00590192599355       -0.06010291588798        1.50148464204390
C           -2.34006199044403        2.76069783176218       -0.78728231445630
C           -1.52603442739608        1.68366089595311       -1.52767023828338
C           -0.22847704412390        1.37023851008324       -0.89346584697316
N            0.25417630139684        0.15289246641878       -0.67901445568799
C            1.62147537798962       -0.01510144604792       -0.24767361783658
C            2.54929127056106       -0.39158361356097       -1.42060566422337
C            3.98647380730949       -0.24868362739913       -1.00534595062909
C            4.63728327333863        0.96485252311778       -1.15164595359383
C            5.95535608912725        1.11742747993995       -0.75010973976630
C            6.64790957210581        0.05614643823525       -0.18717205942871
O            7.92854922222475        0.08905132405179        0.23225942730874
C            8.66933405114091        1.27651303312372        0.07243792265854
C            5.98624502044339       -1.19119841046449       -0.02509626449289
O            6.73375428939232       -2.16780107546901        0.53089069015642
C            6.17580448566218       -3.44836559034293        0.70073130207542
C            4.66836981749924       -1.32021709653184       -0.43348643663084
C           -0.46479454127629       -1.04441493487891       -1.03973438762648
C           -4.02750354754252        3.19264347735112        1.06254812612476
C           -4.68631598919821        2.85583133127926        2.33461645791584
C           -4.40567076998679        4.44262475700730        0.37498167819398
H           -4.64315299562142        1.24225433060117       -1.16239291577109
H           -4.33420728773220       -3.27676610055604       -1.92875721276547
H           -3.25818740337456       -2.64534382133271       -3.20197199685584
H           -4.96120363773580       -2.12238029432194       -3.13413040873088
H           -5.23649370907161       -3.46034937411196        2.42178606482670
H           -5.51572758484689       -4.72609914509508        1.19880364394105
H           -3.85256123816323       -4.20690968535374        1.57462511750865
H           -3.33124533193417       -1.99688065970558        2.33916298948091
H           -2.33514555306603        0.22013494346743        2.29730037957345
H           -3.17532429421528        3.02670197740747       -1.43183639632386
H           -1.72404787050804        3.65227571517057       -0.65289658508353
H           -2.13548992995749        0.79151659619264       -1.66307956384588
H           -1.31475209080242        2.09114650037845       -2.52524154557454
H           -0.86737198947697        1.83554047009507        1.23178029516774
H            0.43180821471113        2.19558769223236       -0.66944225666925
H            1.66462531630110       -0.79326149851917        0.51894679904564
H            1.97690727112154        0.91874641045645        0.19318874819072
H            2.34177537993486        0.28124176160810       -2.25490894031820
H            2.34503042013732       -1.41340099831397       -1.74093087120051
H            4.12269722443141        1.80360026779265       -1.59592805368008
H            6.43712528919085        2.07166277548461       -0.88619227919250
H            8.23464893314915        2.10110146539426        0.64599559229008
H            8.74377163741801        1.56332652037351       -0.98094969978776
H            9.66297364050123        1.05497191834172        0.45697066762643
H            6.96570957075857       -4.05491274858474        1.13949948075806
H            5.31797919526395       -3.42616495629656        1.38075511560091
H            5.87378618071999       -3.88525958301057       -0.25626598690757
H            4.15942837793705       -2.26491022562289       -0.32317285485398
H           -0.45053255330420       -1.19961337936686       -2.12110053522895
H           -1.50584852561743       -0.99079182969641       -0.72202890335970
H            0.00422328775771       -1.89943316769553       -0.55867411140266
H           -5.60310857847556       -1.03559671856111       -1.12383721177595
H           -4.16101536974016        3.37187173577294        3.14685812327115
H           -4.64035971954822        1.79083634139457        2.54982654666767
H           -5.72060419561540        3.19405130167496        2.34570415998277
H           -3.53009412409603        5.04126672681787        0.12151402178852
H           -4.93188567031406        4.24067036408750       -0.56287566113296
H           -5.06740088199598        5.03414945590069        1.00177798446254
H           -0.93654593318853        3.14559963536224        3.17799240707527

          :  Hamiltonian                  GFN2-xTB          :
         :: total energy             -99.326167841091 Eh    ::
         :: gradient norm              0.004037279690 Eh/a0 ::
         :: HOMO-LUMO gap              0.349659697737 eV    ::
         :: SCC energy              -100.686707481514 Eh    ::
         :: -> dispersion             -0.076059931900 Eh    ::
         :: repulsion energy           1.359111478611 Eh    ::

    * Orbital Energies and Occupations

         #    Occupation            Energy/Eh            Energy/eV
      -------------------------------------------------------------
         1        2.0000           -0.8141107             -22.1531
       ...           ...                  ...                  ...
        78        1.9994           -0.5328011             -14.4983
        79        1.9991           -0.5273562             -14.3501
        80        1.9989           -0.5248385             -14.2816
        81        1.9988           -0.5231621             -14.2360
        82        1.9987           -0.5217621             -14.1979
        83        1.9986           -0.5205203             -14.1641
        84        1.9977           -0.5124390             -13.9442
        85        1.9897           -0.4886893             -13.2979
        86        1.9830           -0.4806003             -13.0778
        87        1.9824           -0.4800911             -13.0639
        88        1.9784           -0.4767843             -12.9740
        89        1.8749           -0.4481397             -12.1945
        90        1.0692           -0.4074730             -11.0879 (HOMO)
        91        0.6757           -0.3946233             -10.7382 (LUMO)
        92        0.4208           -0.3843353             -10.4583
        93        0.0287           -0.3382957              -9.2055
        94        0.0035           -0.3045981              -8.2885
        95        0.0034           -0.3041871              -8.2774
        96        0.0029           -0.3018557              -8.2139
        97        0.0000           -0.2351241              -6.3981
        98        0.0000           -0.1790644              -4.8726
        99                         -0.1224583              -3.3323
       100                         -0.0746824              -2.0322
       101                         -0.0614365              -1.6718
       ...                                ...                  ...
       171                          0.5847982              15.9132
      -------------------------------------------------------------
                  HL-Gap            0.0128498 Eh            0.3497 eV

     #   Z          covCN         q      C6AA      α(0)
     1   7 N        1.774    -0.293    28.399     7.891
     2   6 C        2.828     0.098    25.816     8.326
     3   6 C        3.912     0.008    20.388     6.418
     4   6 C        2.965     0.006    27.877     8.660
     5   6 C        2.912    -0.070    29.739     8.942
     6   6 C        3.746     0.106    18.900     6.201
     7   8 O        1.697    -0.336    19.628     5.981
     8   6 C        3.637     0.037    20.317     6.484
     9   6 C        2.852     0.124    25.264     8.238
    10   8 O        1.705    -0.236    17.918     5.715
    11   6 C        3.644     0.026    20.470     6.503
    12   6 C        2.901    -0.074    29.851     8.958
    13   6 C        2.919    -0.059    29.454     8.900
    14   6 C        3.809    -0.066    21.762     6.640
    15   6 C        3.802    -0.074    21.921     6.666
    16   6 C        2.844     0.004    27.930     8.661
    17   7 N        2.729     0.015    21.000     6.806
    18   6 C        3.758    -0.016    20.912     6.520
    19   6 C        3.808    -0.070    21.833     6.652
    20   6 C        2.969    -0.002    28.072     8.691
    21   6 C        2.923    -0.051    29.260     8.871
    22   6 C        2.914    -0.069    29.714     8.939
    23   6 C        2.865     0.132    25.119     8.215
    24   8 O        1.706    -0.227    17.765     5.691
    25   6 C        3.646     0.027    20.458     6.500
    26   6 C        2.863     0.132    25.119     8.215
    27   8 O        1.706    -0.229    17.800     5.696
    28   6 C        3.645     0.028    20.430     6.497
    29   6 C        2.919    -0.080    29.999     8.982
    30   6 C        3.700    -0.076    22.114     6.725
    31   6 C        2.950     0.034    27.249     8.562
    32   6 C        3.756    -0.125    22.951     6.831
    33   6 C        3.754    -0.120    22.857     6.817
    34   1 H        0.926     0.046     2.369     2.407
    35   1 H        0.924     0.046     2.366     2.406
    36   1 H        0.925     0.058     2.217     2.329
    37   1 H        0.924     0.040     2.450     2.448
    38   1 H        0.924     0.057     2.229     2.335
    39   1 H        0.925     0.079     1.989     2.205
    40   1 H        0.924     0.053     2.279     2.361
    41   1 H        0.926     0.045     2.378     2.412
    42   1 H        0.926     0.033     2.541     2.493
    43   1 H        0.925     0.066     2.135     2.285
    44   1 H        0.924     0.049     2.334     2.389
    45   1 H        0.925     0.086     1.915     2.164
    46   1 H        0.923     0.079     1.989     2.205
    47   1 H        0.923     0.013     2.842     2.637
    48   1 H        0.926     0.064     2.155     2.295
    49   1 H        0.924     0.066     2.132     2.284
    50   1 H        0.924     0.065     2.143     2.289
    51   1 H        0.924     0.053     2.280     2.361
    52   1 H        0.925     0.055     2.257     2.349
    53   1 H        0.926     0.041     2.429     2.437
    54   1 H        0.926     0.055     2.254     2.348
    55   1 H        0.924     0.052     2.301     2.372
    56   1 H        0.924     0.053     2.278     2.360
    57   1 H        0.925     0.080     1.980     2.200
    58   1 H        0.925     0.080     1.984     2.203
    59   1 H        0.924     0.047     2.359     2.402
    60   1 H        0.924     0.051     2.313     2.378
    61   1 H        0.926     0.046     2.370     2.407
    62   1 H        0.924     0.078     1.999     2.211
    63   1 H        0.925     0.099     1.794     2.094
    64   1 H        0.925     0.075     2.035     2.231
    65   1 H        0.924     0.050     2.321     2.383
    66   1 H        0.924     0.113     1.671     2.022
    67   1 H        0.925     0.065     2.146     2.291
    68   1 H        0.925     0.074     2.047     2.237
    69   1 H        0.924     0.074     2.042     2.235
    70   1 H        0.924     0.077     2.013     2.219
    71   1 H        0.925     0.074     2.041     2.234
    72   1 H        0.860     0.158     1.347     1.818

Wiberg/Mayer (AO) data.
largest (>0.10) Wiberg bond orders for each atom

     #   Z sym  total        # sym  WBO       # sym  WBO       # sym  WBO
 ---------------------------------------------------------------------------
     1   7 N    3.015 --     2 C    1.951    72 H    0.942
     2   6 C    3.893 --     1 N    1.951     3 C    0.954    47 H    0.915
     3   6 C    3.983 --    31 C    1.021    14 C    0.958     2 C    0.954
                             4 C    0.933
     4   6 C    3.946 --     5 C    1.574    13 C    1.292     3 C    0.933
     5   6 C    3.699 --     4 C    1.574     6 C    1.017    34 H    0.967
     6   6 C    3.947 --     5 C    1.017     9 C    0.984    65 H    0.949
                             7 O    0.911
     7   8 O    2.010 --     8 C    0.992     6 C    0.911
     8   6 C    3.940 --     7 O    0.992    37 H    0.976    35 H    0.975
                            36 H    0.975
     9   6 C    3.705 --    12 C    1.489    10 O    1.115     6 C    0.984
    10   8 O    2.229 --     9 C    1.115    11 C    0.971
    11   6 C    3.931 --    39 H    0.978    40 H    0.974    38 H    0.974
                            10 O    0.971
    12   6 C    3.953 --     9 C    1.489    13 C    1.333    41 H    0.961
    13   6 C    3.674 --    12 C    1.333     4 C    1.292    42 H    0.965
    14   6 C    3.973 --    15 C    0.984    44 H    0.973    43 H    0.967
                             3 C    0.958
    15   6 C    3.982 --    16 C    1.061    14 C    0.984    45 H    0.954
                            46 H    0.927
    16   6 C    3.570 --    17 N    1.406    15 C    1.061    48 H    0.957
    17   7 N    3.473 --    16 C    1.406    30 C    0.997    18 C    0.990
    18   6 C    3.957 --    17 N    0.990    50 H    0.968    19 C    0.966
                            49 H    0.964
    19   6 C    3.976 --    20 C    1.008    52 H    0.973    51 H    0.972
                            18 C    0.966
    20   6 C    3.951 --    21 C    1.413    29 C    1.379    19 C    1.008
    21   6 C    3.956 --    22 C    1.414    20 C    1.413    53 H    0.968
    22   6 C    3.964 --    21 C    1.414    23 C    1.388    54 H    0.964
    23   6 C    3.902 --    22 C    1.388    26 C    1.226    24 O    1.103
    24   8 O    2.254 --    23 C    1.103    25 C    0.977
    25   6 C    3.931 --    24 O    0.977    57 H    0.977    56 H    0.973
                            55 H    0.973
    26   6 C    3.905 --    29 C    1.398    23 C    1.226    27 O    1.098
    27   8 O    2.254 --    26 C    1.098    28 C    0.980
    28   6 C    3.934 --    27 O    0.980    58 H    0.977    59 H    0.974
                            60 H    0.974
    29   6 C    3.962 --    26 C    1.398    20 C    1.379    61 H    0.963
    30   6 C    3.952 --    17 N    0.997    64 H    0.978    62 H    0.963
                            63 H    0.957
    31   6 C    3.319 --    32 C    1.098    33 C    1.084     3 C    1.021
    32   6 C    3.973 --    31 C    1.098    67 H    0.967    68 H    0.962
                            66 H    0.903
    33   6 C    3.981 --    31 C    1.084    71 H    0.975    69 H    0.949
                            70 H    0.932
    34   1 H    0.997 --     5 C    0.967
    35   1 H    0.995 --     8 C    0.975
    36   1 H    0.993 --     8 C    0.975
    37   1 H    0.996 --     8 C    0.976
    38   1 H    0.991 --    11 C    0.974
    39   1 H    0.993 --    11 C    0.978
    40   1 H    0.992 --    11 C    0.974
    41   1 H    0.996 --    12 C    0.961
    42   1 H    0.998 --    13 C    0.965
    43   1 H    0.994 --    14 C    0.967
    44   1 H    0.997 --    14 C    0.973
    45   1 H    0.992 --    15 C    0.954
    46   1 H    0.969 --    15 C    0.927
    47   1 H    0.989 --     2 C    0.915
    48   1 H    0.995 --    16 C    0.957
    49   1 H    0.991 --    18 C    0.964
    50   1 H    0.995 --    18 C    0.968
    51   1 H    0.996 --    19 C    0.972
    52   1 H    0.996 --    19 C    0.973
    53   1 H    0.998 --    21 C    0.968
    54   1 H    0.995 --    22 C    0.964
    55   1 H    0.993 --    25 C    0.973
    56   1 H    0.993 --    25 C    0.973
    57   1 H    0.993 --    25 C    0.977
    58   1 H    0.993 --    28 C    0.977
    59   1 H    0.994 --    28 C    0.974
    60   1 H    0.994 --    28 C    0.974
    61   1 H    0.997 --    29 C    0.963
    62   1 H    0.982 --    30 C    0.963
    63   1 H    0.985 --    30 C    0.957
    64   1 H    0.994 --    30 C    0.978
    65   1 H    0.982 --     6 C    0.949
    66   1 H    0.937 --    32 C    0.903
    67   1 H    0.988 --    32 C    0.967
    68   1 H    0.981 --    32 C    0.962
    69   1 H    0.970 --    33 C    0.949
    70   1 H    0.956 --    33 C    0.932
    71   1 H    0.992 --    33 C    0.975
    72   1 H    0.971 --     1 N    0.942
 ---------------------------------------------------------------------------

molecular dipole:
                 x           y           z       tot (Debye)
 q only:       -0.866       0.784      -0.079
   full:       -0.734       0.505      -0.211       2.326

           -------------------------------------------------
          | TOTAL ENERGY              -99.326167841091 Eh   |
          | GRADIENT NORM               0.004037279690 Eh/α |
          | HOMO-LUMO GAP               0.349659697737 eV   |
           -------------------------------------------------

 * finished run on 2024/04/06 at 11:16:16.442
