   * xtb version 6.6.1 (8d0f1dd) compiled by 'conda@1efc2f54142f' on 2023-08-01
          program call               : xtb struc.xyz --opt loose --input .xc1 --gfn2

   ID    Z sym.   atoms
    1    7 N      1, 17
    2    6 C      2-6, 8, 9, 11-16, 18-23, 25, 26, 28-33
    3    8 O      7, 10, 24, 27
    4    1 H      34-72
constraining bond 1 2 to    3.9200000 Å, actual value:    1.2352558 Å

          :  Hamiltonian                  GFN2-xTB          :
 * total energy  :   -98.1171459 Eh     change       -0.4035485E-08 Eh
 * total energy  :   -98.2705580 Eh     change       -0.1534121E+00 Eh
 * total energy  :   -98.4166158 Eh     change       -0.1460578E+00 Eh
 * total energy  :   -98.6351042 Eh     change       -0.2184883E+00 Eh
 * total energy  :   -98.8694456 Eh     change       -0.2343415E+00 Eh
 * total energy  :   -98.9971757 Eh     change       -0.1277300E+00 Eh
 * total energy  :   -99.0390968 Eh     change       -0.4192110E-01 Eh
 * total energy  :   -99.0737586 Eh     change       -0.3466179E-01 Eh
 * total energy  :   -99.1006558 Eh     change       -0.2689722E-01 Eh
 * total energy  :   -99.1272294 Eh     change       -0.2657362E-01 Eh
 * total energy  :   -99.2671488 Eh     change       -0.8593181E-04 Eh
 * total energy  :   -99.2672350 Eh     change       -0.8619376E-04 Eh
 * total energy  :   -99.2673293 Eh     change       -0.9432042E-04 Eh
 * total energy  :   -99.2674114 Eh     change       -0.8206381E-04 Eh
 * total energy  :   -99.2674581 Eh     change       -0.4666845E-04 Eh
 * total energy  :   -99.2675446 Eh     change       -0.8650748E-04 Eh
 * total energy  :   -99.2675967 Eh     change       -0.5214522E-04 Eh
 * total energy  :   -99.2676472 Eh     change       -0.5047665E-04 Eh
 * total energy  :   -99.2676821 Eh     change       -0.3494378E-04 Eh
   *** GEOMETRY OPTIMIZATION CONVERGED AFTER 85 ITERATIONS ***

 final structure:
================
72
 xtb: 6.6.1 (8d0f1dd)
N           -3.57038102897145        2.72165474439617        3.55072252749221
C           -1.41434064583932        1.19127955911016        0.68732929278376
C           -2.65018851568573        1.30185156873260       -0.11909230667631
C           -3.56052379422751        0.08602016987561        0.06465291242449
C           -4.62788275863574       -0.12216693945045       -0.80860394208391
C           -5.46503590647180       -1.21916142401044       -0.67380974990724
O           -6.51790932231566       -1.49898537816363       -1.46530546250217
C           -6.84232157826734       -0.63178088113615       -2.52602025729746
C           -5.23505999902200       -2.15230520713954        0.37607855152970
O           -6.08608552077940       -3.19186742132627        0.42073607457074
C           -5.93450368460908       -4.16304691145411        1.43139549931225
C           -4.18710901207992       -1.92023467664060        1.25492409810536
C           -3.36613905861259       -0.81306833284199        1.10329097752200
C           -2.09048380186372        1.33314579087296       -1.56724945191690
C           -0.77520516896768        0.56195914840932       -1.50178372681207
C           -0.19683414293635        0.96816443870066       -0.12624421676312
N            0.73301510966008        0.06793638568546        0.50876320993361
C            2.13572717612477        0.34809117319272        0.43183738081956
C            2.78326588318369        0.07333365873326       -0.94973795633769
C            4.26550736744587        0.24956637174104       -0.84362708641772
C            4.85853061767273        1.48220157158157       -1.08359893519217
C            6.22249321038247        1.65810051781388       -0.92130799164742
C            7.02869242306121        0.60420466509366       -0.50813449511185
O            8.35535916314001        0.66549385168998       -0.30632006537496
C            9.02549195875391        1.89109236048526       -0.48809069407411
C            6.43187211452685       -0.66712108445560       -0.26688659152381
O            7.28057075877647       -1.63682901675330        0.11964885595723
C            6.78313561618086       -2.93083057044339        0.37003478269918
C            5.06338415223254       -0.81609865845547       -0.43467525345260
C            0.35748641328164       -1.31510860726691        0.62035606213899
C           -3.47287432683845        2.59982648251438        0.19474899351752
C           -4.47137055015824        2.47869137090245        1.30346739142139
C           -2.57116200071999        3.81522463145483        0.43006431294185
H           -4.81926555697137        0.58903838797703       -1.59601852027764
H           -7.09705814988401        0.36893721120196       -2.16303355251080
H           -7.71428580441937       -1.07215714249508       -3.00549207735837
H           -6.02707237953109       -0.56269071736786       -3.25293305315786
H           -6.05094810183975       -3.72585455355744        2.42747594856246
H           -6.72752076431651       -4.88824459932230        1.26042702647467
H           -4.96365703640265       -4.66308952276667        1.36209240989169
H           -4.00122814917058       -2.59797171462008        2.07214999319900
H           -2.57882859553973       -0.64809617175150        1.82109041985690
H           -2.77310258044100        0.89398779926999       -2.29025237920924
H           -1.89713302691778        2.36427157830194       -1.86318123863307
H           -0.97235523385132       -0.50945157036847       -1.51402980236077
H           -0.10984661744838        0.80505852428781       -2.32745539709069
H           -1.37997345265907        1.32562010314349        1.75236984064750
H            0.33341843321988        1.92786396536908       -0.24005937163739
H            2.64205649016889       -0.26752003488598        1.17962339693405
H            2.30117665218798        1.39669826231509        0.69319975748144
H            2.37010829631280        0.76353624995411       -1.68563183145361
H            2.54585682970431       -0.94659563028794       -1.25391491498220
H            4.25460983167427        2.31659071979421       -1.40595884728859
H            6.65426543767278        2.62541334115803       -1.11955266639669
H            8.63008366296870        2.66486932664542        0.17644828522615
H            8.96129720457473        2.23242849623358       -1.52570638586344
H           10.06598576875906        1.69614876498194       -0.23647820705336
H            7.64730874197650       -3.52562744015208        0.66004037179316
H            6.05463672083323       -2.92918922082512        1.18695861156282
H            6.32864632373145       -3.36459809404049       -0.52594685840378
H            4.59990568516788       -1.77302373486016       -0.25289400332739
H            0.62496679699403       -1.90480495365227       -0.26598865438048
H           -0.71743388371899       -1.38607623365157        0.76904367701066
H            0.86193077276949       -1.75302590312073        1.48240584185278
H           -4.06682463855028        2.79253146825411       -0.71253069502310
H           -3.77179530647272        2.52306806890757        2.49873908835073
H           -4.98696489821680        1.53348826981652        1.40574662316995
H           -5.11640574546073        3.34190569412935        1.40378604913596
H           -2.04310923175039        3.71349571852940        1.37402451591766
H           -1.84301550450481        3.93408250080086       -0.36639674816352
H           -3.17419230100614        4.71904731013502        0.47479894389908
H           -4.42684224008880        3.03484164755836        3.99673650615636

          :  Hamiltonian                  GFN2-xTB          :
         :: total energy             -99.267682175212 Eh    ::
         :: gradient norm              0.002417538832 Eh/a0 ::
         :: HOMO-LUMO gap              0.566171302669 eV    ::
         :: SCC energy              -100.595935560901 Eh    ::
         :: -> dispersion             -0.073941052520 Eh    ::
         :: repulsion energy           1.327275804199 Eh    ::

    * Orbital Energies and Occupations

         #    Occupation            Energy/Eh            Energy/eV
      -------------------------------------------------------------
         1        2.0000           -0.8144133             -22.1613
       ...           ...                  ...                  ...
        78        1.9978           -0.5351710             -14.5627
        79        1.9975           -0.5330427             -14.5048
        80        1.9969           -0.5293818             -14.4052
        81        1.9966           -0.5281014             -14.3704
        82        1.9951           -0.5222746             -14.2118
        83        1.9947           -0.5210774             -14.1792
        84        1.9734           -0.4953737             -13.4798
        85        1.9652           -0.4910500             -13.3622
        86        1.9547           -0.4867955             -13.2464
        87        1.8318           -0.4649968             -12.6532
        88        1.8146           -0.4633074             -12.6072
        89        1.6836           -0.4536558             -12.3446
        90        1.4755           -0.4435634             -12.0700 (HOMO)
        91        0.8610           -0.4227570             -11.5038 (LUMO)
        92        0.4688           -0.4084455             -11.1144
        93        0.0024           -0.3206559              -8.7255
        94        0.0020           -0.3176107              -8.6426
        95        0.0016           -0.3141788              -8.5492
        96        0.0014           -0.3119635              -8.4890
        97        0.0000           -0.1953116              -5.3147
        98        0.0000           -0.1896026              -5.1593
        99                         -0.1024221              -2.7870
       100                         -0.0805756              -2.1926
       101                         -0.0683497              -1.8599
       ...                                ...                  ...
       171                          0.5718909              15.5619
      -------------------------------------------------------------
                  HL-Gap            0.0208064 Eh            0.5662 eV

     #   Z          covCN         q      C6AA      α(0)
     1   7 N        1.714    -0.423    31.904     8.353
     2   6 C        2.946    -0.045    29.122     8.851
     3   6 C        3.916     0.015    20.261     6.398
     4   6 C        2.971     0.005    27.915     8.666
     5   6 C        2.919    -0.079    29.974     8.978
     6   6 C        2.862     0.133    25.085     8.209
     7   8 O        1.706    -0.222    17.682     5.677
     8   6 C        3.644     0.026    20.476     6.504
     9   6 C        2.864     0.134    25.071     8.207
    10   8 O        1.706    -0.219    17.633     5.670
    11   6 C        3.645     0.024    20.506     6.508
    12   6 C        2.913    -0.069    29.718     8.939
    13   6 C        2.921    -0.049    29.215     8.864
    14   6 C        3.844    -0.068    21.776     6.638
    15   6 C        3.832    -0.067    21.765     6.638
    16   6 C        3.815     0.038    19.930     6.354
    17   7 N        2.729    -0.099    23.183     7.151
    18   6 C        3.749    -0.006    20.756     6.498
    19   6 C        3.807    -0.070    21.842     6.653
    20   6 C        2.969     0.009    27.804     8.649
    21   6 C        2.921    -0.044    29.081     8.843
    22   6 C        2.913    -0.065    29.611     8.923
    23   6 C        2.864     0.136    25.026     8.200
    24   8 O        1.706    -0.213    17.540     5.655
    25   6 C        3.646     0.023    20.521     6.510
    26   6 C        2.862     0.136    25.023     8.199
    27   8 O        1.706    -0.217    17.603     5.665
    28   6 C        3.645     0.025    20.493     6.506
    29   6 C        2.919    -0.076    29.907     8.968
    30   6 C        3.697    -0.051    21.663     6.658
    31   6 C        3.851    -0.009    20.710     6.473
    32   6 C        3.414    -0.075    25.393     7.738
    33   6 C        3.756    -0.119    22.829     6.813
    34   1 H        0.926     0.051     2.304     2.374
    35   1 H        0.924     0.053     2.286     2.365
    36   1 H        0.925     0.084     1.935     2.175
    37   1 H        0.924     0.053     2.286     2.364
    38   1 H        0.924     0.058     2.224     2.332
    39   1 H        0.925     0.084     1.935     2.175
    40   1 H        0.924     0.056     2.249     2.345
    41   1 H        0.926     0.060     2.200     2.319
    42   1 H        0.926     0.056     2.243     2.342
    43   1 H        0.925     0.051     2.313     2.378
    44   1 H        0.925     0.049     2.336     2.390
    45   1 H        0.925     0.050     2.323     2.384
    46   1 H        0.925     0.046     2.372     2.408
    47   1 H        0.926     0.072     2.067     2.248
    48   1 H        0.923     0.075     2.032     2.229
    49   1 H        0.924     0.058     2.218     2.329
    50   1 H        0.924     0.054     2.271     2.357
    51   1 H        0.924     0.049     2.330     2.387
    52   1 H        0.924     0.052     2.298     2.370
    53   1 H        0.926     0.052     2.297     2.370
    54   1 H        0.926     0.062     2.178     2.308
    55   1 H        0.924     0.058     2.218     2.329
    56   1 H        0.924     0.060     2.204     2.321
    57   1 H        0.925     0.085     1.927     2.171
    58   1 H        0.925     0.084     1.934     2.175
    59   1 H        0.924     0.054     2.268     2.355
    60   1 H        0.924     0.056     2.242     2.341
    61   1 H        0.926     0.054     2.272     2.357
    62   1 H        0.924     0.045     2.384     2.415
    63   1 H        0.925     0.063     2.164     2.300
    64   1 H        0.924     0.061     2.182     2.310
    65   1 H        0.923     0.075     2.035     2.231
    66   1 H        1.427     0.204     1.072     1.617
    67   1 H        0.925     0.070     2.089     2.260
    68   1 H        0.925     0.078     2.001     2.212
    69   1 H        0.925     0.066     2.126     2.280
    70   1 H        0.925     0.047     2.356     2.401
    71   1 H        0.925     0.058     2.217     2.329
    72   1 H        0.860     0.140     1.472     1.900

Wiberg/Mayer (AO) data.
largest (>0.10) Wiberg bond orders for each atom

     #   Z sym  total        # sym  WBO       # sym  WBO       # sym  WBO
 ---------------------------------------------------------------------------
     1   7 N    1.851 --    72 H    0.973    66 H    0.625    32 C    0.205
     2   6 C    3.190 --     3 C    1.062    16 C    1.049    47 H    0.966
     3   6 C    3.979 --     2 C    1.062    14 C    0.964     4 C    0.943
                            31 C    0.920
     4   6 C    3.891 --    13 C    1.403     5 C    1.375     3 C    0.943
     5   6 C    3.953 --     6 C    1.392     4 C    1.375    34 H    0.957
     6   6 C    3.890 --     5 C    1.392     9 C    1.213     7 O    1.107
     7   8 O    2.253 --     6 C    1.107     8 C    0.977
     8   6 C    3.929 --     7 O    0.977    36 H    0.976    37 H    0.972
                            35 H    0.972
     9   6 C    3.888 --    12 C    1.381     6 C    1.213    10 O    1.114
    10   8 O    2.254 --     9 C    1.114    11 C    0.975
    11   6 C    3.926 --    39 H    0.976    10 O    0.975    40 H    0.972
                            38 H    0.972
    12   6 C    3.954 --    13 C    1.415     9 C    1.381    41 H    0.962
    13   6 C    3.937 --    12 C    1.415     4 C    1.403    42 H    0.957
    14   6 C    3.983 --    15 C    1.009    44 H    0.971    43 H    0.971
                             3 C    0.964
    15   6 C    3.961 --    14 C    1.009    46 H    0.977    45 H    0.974
                            16 C    0.953
    16   6 C    3.965 --     2 C    1.049    17 N    0.994    15 C    0.953
                            48 H    0.909
    17   7 N    3.122 --    18 C    1.021    30 C    1.017    16 C    0.994
    18   6 C    3.960 --    17 N    1.021    50 H    0.966    49 H    0.966
                            19 C    0.948
    19   6 C    3.961 --    20 C    1.019    51 H    0.971    52 H    0.968
                            18 C    0.948
    20   6 C    3.923 --    21 C    1.386    29 C    1.380    19 C    1.019
    21   6 C    3.924 --    22 C    1.427    20 C    1.386    53 H    0.967
    22   6 C    3.947 --    21 C    1.427    23 C    1.371    54 H    0.962
    23   6 C    3.868 --    22 C    1.371    26 C    1.207    24 O    1.119
    24   8 O    2.248 --    23 C    1.119    25 C    0.975
    25   6 C    3.924 --    57 H    0.976    24 O    0.975    55 H    0.971
                            56 H    0.970
    26   6 C    3.878 --    29 C    1.389    23 C    1.207    27 O    1.113
    27   8 O    2.249 --    26 C    1.113    28 C    0.976
    28   6 C    3.927 --    27 O    0.976    58 H    0.976    59 H    0.972
                            60 H    0.972
    29   6 C    3.947 --    26 C    1.389    20 C    1.380    61 H    0.961
    30   6 C    3.961 --    17 N    1.017    64 H    0.973    63 H    0.972
                            62 H    0.960
    31   6 C    3.946 --    32 C    1.053    33 C    0.996     3 C    0.920
                            65 H    0.914
    32   6 C    3.580 --    31 C    1.053    68 H    0.974    67 H    0.970
                            66 H    0.326     1 N    0.205
    33   6 C    3.976 --    31 C    0.996    71 H    0.982    70 H    0.981
                            69 H    0.979
    34   1 H    0.995 --     5 C    0.957
    35   1 H    0.992 --     8 C    0.972
    36   1 H    0.992 --     8 C    0.976
    37   1 H    0.992 --     8 C    0.972
    38   1 H    0.990 --    11 C    0.972
    39   1 H    0.992 --    11 C    0.976
    40   1 H    0.991 --    11 C    0.972
    41   1 H    0.994 --    12 C    0.962
    42   1 H    0.996 --    13 C    0.957
    43   1 H    0.994 --    14 C    0.971
    44   1 H    0.996 --    14 C    0.971
    45   1 H    0.996 --    15 C    0.974
    46   1 H    0.996 --    15 C    0.977
    47   1 H    0.994 --     2 C    0.966
    48   1 H    0.945 --    16 C    0.909
    49   1 H    0.992 --    18 C    0.966
    50   1 H    0.991 --    18 C    0.966
    51   1 H    0.995 --    19 C    0.971
    52   1 H    0.994 --    19 C    0.968
    53   1 H    0.996 --    21 C    0.967
    54   1 H    0.994 --    22 C    0.962
    55   1 H    0.989 --    25 C    0.971
    56   1 H    0.988 --    25 C    0.970
    57   1 H    0.992 --    25 C    0.976
    58   1 H    0.992 --    28 C    0.976
    59   1 H    0.990 --    28 C    0.972
    60   1 H    0.990 --    28 C    0.972
    61   1 H    0.995 --    29 C    0.961
    62   1 H    0.974 --    30 C    0.960
    63   1 H    0.994 --    30 C    0.972
    64   1 H    0.988 --    30 C    0.973
    65   1 H    0.967 --    31 C    0.914
    66   1 H    0.958 --     1 N    0.625    32 C    0.326
    67   1 H    0.993 --    32 C    0.970
    68   1 H    0.991 --    32 C    0.974
    69   1 H    0.994 --    33 C    0.979
    70   1 H    0.997 --    33 C    0.981
    71   1 H    0.995 --    33 C    0.982
    72   1 H    0.974 --     1 N    0.973
 ---------------------------------------------------------------------------

molecular dipole:
                 x           y           z       tot (Debye)
 q only:        0.209       0.092      -0.871
   full:       -0.141       0.238      -1.044       2.744

           -------------------------------------------------
          | TOTAL ENERGY              -99.267682175212 Eh   |
          | GRADIENT NORM               0.002417538832 Eh/α |
          | HOMO-LUMO GAP               0.566171302669 eV   |
           -------------------------------------------------

 * finished run on 2024/04/06 at 11:11:45.696
