   * xtb version 6.6.1 (8d0f1dd) compiled by 'conda@1efc2f54142f' on 2023-08-01
          program call               : xtb struc.xyz --opt loose --input .xc1 --gfn2

   ID    Z sym.   atoms
    1    6 C      1, 3, 5-7, 10, 11, 14
    2    7 N      2, 4, 9, 13
    3    8 O      8, 12
    4    1 H      15-25
constraining bond 3 5 to    5.0000000 Å, actual value:    2.1957592 Å

          :  Hamiltonian                  GFN2-xTB          :
 * total energy  :   -28.2068510 Eh     change       -0.6650680E-10 Eh
 * total energy  :   -32.8807082 Eh     change       -0.4673857E+01 Eh
 * total energy  :   -36.0457981 Eh     change       -0.3165090E+01 Eh
 * total energy  :   -38.4585742 Eh     change       -0.2412776E+01 Eh
 * total energy  :   -40.2519283 Eh     change       -0.1793354E+01 Eh
 * total energy  :   -41.0795051 Eh     change       -0.8275768E+00 Eh
 * total energy  :   -41.2684485 Eh     change       -0.1889434E+00 Eh
 * total energy  :   -41.3389155 Eh     change       -0.7046703E-01 Eh
 * total energy  :   -41.4028705 Eh     change       -0.6395500E-01 Eh
 * total energy  :   -41.4458103 Eh     change       -0.4293978E-01 Eh
 * total energy  :   -42.0027688 Eh     change       -0.3589043E-04 Eh
 * total energy  :   -42.0028717 Eh     change       -0.1028643E-03 Eh
 * total energy  :   -42.0029117 Eh     change       -0.4008290E-04 Eh
 * total energy  :   -42.0029994 Eh     change       -0.8764438E-04 Eh
 * total energy  :   -42.0030368 Eh     change       -0.3746713E-04 Eh
 * total energy  :   -42.0030937 Eh     change       -0.5684594E-04 Eh
 * total energy  :   -42.0031277 Eh     change       -0.3399989E-04 Eh
 * total energy  :   -42.0031857 Eh     change       -0.5798870E-04 Eh
 * total energy  :   -42.0032342 Eh     change       -0.4850966E-04 Eh
   *** GEOMETRY OPTIMIZATION CONVERGED AFTER 88 ITERATIONS ***

 final structure:
================
25
 xtb: 6.6.1 (8d0f1dd)
C            2.02542160205926        1.80668321855458        0.13088970935872
N            2.03847523094489        0.40273256286935        0.09487458754366
C            5.17547561228420       -0.71119205140785       -0.34574351812219
N            0.97631737404853       -2.34022701214053        0.04127145196013
C            0.22822884819878       -1.32692475142547        0.03736328026103
C            0.80258414014423        0.00498925545884        0.07092917398949
C           -0.06779124084468        1.14379242118039        0.09276882970894
O            0.64534155945004        2.24463474099209        0.13156549505733
N           -1.38168154642904        1.05514322338303        0.07667084886224
C           -2.25797577930432        2.21027919750341        0.10449911275113
C           -2.00348263030457       -0.22892417375855        0.01431784574916
O           -3.19950394768673       -0.29157606497602       -0.02343627472590
N           -1.17363783273485       -1.32695470391987        0.00048782052650
C           -1.83345123679405       -2.62549436777109       -0.06627398078965
H            2.52567675846800        2.18818084508897        1.03246155232626
H            6.13735845369072       -0.25132853157680       -0.45229232840270
H            2.53842947233022        2.23772223992454       -0.73910118832046
H            4.87690069832740       -1.73716490281700       -0.27670354601028
H           -1.65504616875120        3.11293488277840        0.14524176032665
H           -2.88621653399172        2.21183338309753       -0.78642458088267
H           -2.91110386166641        2.14831530096955        0.97562081518289
H           -1.61154127453308       -3.20820000659531        0.82919216262218
H           -1.50368190361858       -3.16668005284897       -0.95382243012693
H           -2.90763240345497       -2.46373288521873       -0.12633383890611
H            0.58296812424979       -3.27060322577089        0.02314885799330

          :  Hamiltonian                  GFN2-xTB          :
         :: total energy             -42.003234193532 Eh    ::
         :: gradient norm              0.002404682437 Eh/a0 ::
         :: HOMO-LUMO gap              0.510503283983 eV    ::
         :: SCC energy               -42.500751986187 Eh    ::
         :: -> dispersion             -0.020741410539 Eh    ::
         :: repulsion energy           0.497444086038 Eh    ::

    * Orbital Energies and Occupations

         #    Occupation            Energy/Eh            Energy/eV
      -------------------------------------------------------------
         1        2.0000           -0.9332898             -25.3961
       ...           ...                  ...                  ...
        25        1.9999           -0.6621795             -18.0188
        26        1.9996           -0.6432721             -17.5043
        27        1.9996           -0.6404927             -17.4287
        28        1.9992           -0.6311757             -17.1752
        29        1.9988           -0.6240851             -16.9822
        30        1.9983           -0.6182543             -16.8236
        31        1.9981           -0.6171040             -16.7923
        32        1.9902           -0.5908756             -16.0785
        33        1.9898           -0.5900925             -16.0572
        34        1.9714           -0.5736925             -15.6110
        35        1.9528           -0.5655888             -15.3905
        36        1.8713           -0.5490464             -14.9403
        37        1.1751           -0.5122624             -13.9394 (HOMO)
        38        0.6068           -0.4935018             -13.4289 (LUMO)
        39        0.4445           -0.4868249             -13.2472
        40        0.0042           -0.4089764             -11.1288
        41        0.0007           -0.3795944             -10.3293
        42        0.0000           -0.2899330              -7.8895
        43                         -0.2133802              -5.8064
        44                         -0.1663196              -4.5258
        45                         -0.1462334              -3.9792
        46                         -0.0890479              -2.4231
        47                         -0.0886938              -2.4135
        48                         -0.0405266              -1.1028
       ...                                ...                  ...
        67                          0.5423675              14.7586
      -------------------------------------------------------------
                  HL-Gap            0.0187607 Eh            0.5105 eV

     #   Z          covCN         q      C6AA      α(0)
     1   6 C        3.917     0.126    18.472     6.109
     2   7 N        1.876    -0.178    25.672     7.511
     3   6 C        1.853    -0.082    33.396     9.335
     4   7 N        1.786    -0.255    27.463     7.762
     5   6 C        2.819     0.165    24.430     8.099
     6   6 C        3.071     0.067    26.440     8.431
     7   6 C        2.983     0.219    23.394     7.934
     8   8 O        1.710    -0.190    17.179     5.596
     9   7 N        2.735    -0.038    21.971     6.962
    10   6 C        3.699    -0.065    21.925     6.697
    11   6 C        2.725     0.319    21.571     7.603
    12   8 O        0.859    -0.341    20.535     6.076
    13   7 N        2.741    -0.081    22.820     7.095
    14   6 C        3.706    -0.064    21.877     6.686
    15   1 H        0.923     0.135     1.499     1.915
    16   1 H        0.926     0.149     1.400     1.850
    17   1 H        0.923     0.135     1.501     1.916
    18   1 H        0.926     0.151     1.382     1.838
    19   1 H        0.925     0.103     1.762     2.076
    20   1 H        0.925     0.115     1.655     2.012
    21   1 H        0.924     0.115     1.658     2.013
    22   1 H        0.924     0.090     1.883     2.146
    23   1 H        0.924     0.089     1.888     2.149
    24   1 H        0.925     0.118     1.631     1.997
    25   1 H        0.860     0.200     1.105     1.647

Wiberg/Mayer (AO) data.
largest (>0.10) Wiberg bond orders for each atom

     #   Z sym  total        # sym  WBO       # sym  WBO       # sym  WBO
 ---------------------------------------------------------------------------
     1   6 C    3.897 --     2 N    1.105    17 H    0.908    15 H    0.908
                             8 O    0.906
     2   7 N    2.842 --     6 C    1.565     1 C    1.105
     3   6 C    1.892 --    18 H    0.945    16 H    0.945
     4   7 N    2.918 --     5 C    1.746    25 H    0.921    13 N    0.118
     5   6 C    3.950 --     4 N    1.746    13 N    1.074     6 C    1.053
     6   6 C    3.906 --     2 N    1.565     7 C    1.125     5 C    1.053
     7   6 C    3.824 --     9 N    1.332     8 O    1.212     6 C    1.125
     8   8 O    2.334 --     7 C    1.212     1 C    0.906
     9   7 N    3.579 --     7 C    1.332    11 C    0.990    10 C    0.967
    10   6 C    3.911 --    19 H    0.975     9 N    0.967    21 H    0.958
                            20 H    0.958
    11   6 C    3.939 --    12 O    1.715    13 N    1.149     9 N    0.990
    12   8 O    2.045 --    11 C    1.715    13 N    0.144
    13   7 N    3.520 --    11 C    1.149     5 C    1.074    14 C    0.972
                            12 O    0.144     4 N    0.118
    14   6 C    3.918 --    13 N    0.972    23 H    0.966    24 H    0.965
                            22 H    0.965
    15   1 H    0.953 --     1 C    0.908
    16   1 H    0.952 --     3 C    0.945
    17   1 H    0.953 --     1 C    0.908
    18   1 H    0.952 --     3 C    0.945
    19   1 H    0.988 --    10 C    0.975
    20   1 H    0.979 --    10 C    0.958
    21   1 H    0.980 --    10 C    0.958
    22   1 H    0.985 --    14 C    0.965
    23   1 H    0.986 --    14 C    0.966
    24   1 H    0.984 --    14 C    0.965
    25   1 H    0.952 --     4 N    0.921
 ---------------------------------------------------------------------------

molecular dipole:
                 x           y           z       tot (Debye)
 q only:        1.947       0.254      -0.044
   full:        1.728       0.384      -0.044       4.502

           -------------------------------------------------
          | TOTAL ENERGY              -42.003234193532 Eh   |
          | GRADIENT NORM               0.002404682437 Eh/α |
          | HOMO-LUMO GAP               0.510503283983 eV   |
           -------------------------------------------------

 * finished run on 2024/06/05 at 19:57:54.773
