   * xtb version 6.6.1 (8d0f1dd) compiled by 'conda@1efc2f54142f' on 2023-08-01
          program call               : xtb struc.xyz --opt loose --input .xc1 --gfn2

   ID    Z sym.   atoms
    1    6 C      1, 3, 5-7, 10, 11, 14
    2    7 N      2, 4, 9, 13
    3    8 O      8, 12
    4    1 H      15-25
constraining bond 2 3 to    3.9200000 Å, actual value:    1.3199336 Å

          :  Hamiltonian                  GFN2-xTB          :
 * total energy  :   -18.1062322 Eh     change       -0.6650680E-10 Eh
 * total energy  :   -28.1683064 Eh     change       -0.1006207E+02 Eh
 * total energy  :   -35.2647018 Eh     change       -0.7096395E+01 Eh
 * total energy  :   -39.6414013 Eh     change       -0.4376700E+01 Eh
 * total energy  :   -41.4947164 Eh     change       -0.1853315E+01 Eh
 * total energy  :   -41.8053823 Eh     change       -0.3106659E+00 Eh
 * total energy  :   -41.8192448 Eh     change       -0.1386253E-01 Eh
 * total energy  :   -41.8322607 Eh     change       -0.1301591E-01 Eh
 * total energy  :   -41.8601967 Eh     change       -0.2793594E-01 Eh
 * total energy  :   -41.8794034 Eh     change       -0.1920669E-01 Eh
 * total energy  :   -42.0659691 Eh     change       -0.1975088E-03 Eh
 * total energy  :   -42.0660812 Eh     change       -0.1121159E-03 Eh
 * total energy  :   -42.0662020 Eh     change       -0.1208457E-03 Eh
 * total energy  :   -42.0662636 Eh     change       -0.6157145E-04 Eh
 * total energy  :   -42.0663250 Eh     change       -0.6140708E-04 Eh
 * total energy  :   -42.0663857 Eh     change       -0.6073049E-04 Eh
 * total energy  :   -42.0664331 Eh     change       -0.4740051E-04 Eh
 * total energy  :   -42.0664651 Eh     change       -0.3193928E-04 Eh
 * total energy  :   -42.0664797 Eh     change       -0.1458732E-04 Eh
   *** GEOMETRY OPTIMIZATION CONVERGED AFTER 82 ITERATIONS ***

 final structure:
================
25
 xtb: 6.6.1 (8d0f1dd)
C            3.42098061282035        0.88224112151636        0.27812663460568
N            2.08207280623047        1.24939640505207        0.34691072855109
C            1.97541736558215       -2.58790235569469       -0.45074154940600
N            1.66534083855032       -1.59929947915787        0.30180262442430
C            0.60253276052884       -0.67314875033130        0.16666002263053
C            0.92643957733618        0.70914065842426        0.26742280572500
C           -0.22213365568751        1.68792443311015        0.26019972451205
O           -0.07361976291078        2.85305892182984        0.49612365667072
N           -1.44781862490112        1.14104565975586       -0.06872919562013
C           -2.58524705812294        2.04362619111837       -0.19660947872255
C           -1.72908644603605       -0.19121091835296       -0.25190159747976
O           -2.82193374590516       -0.60011787548139       -0.52694890461426
N           -0.65591755367521       -1.09557322331269       -0.06095297486111
C           -1.02661418915616       -2.49699439671990       -0.09658373441132
H            3.83144959491821        0.81516771539329        1.29173780584929
H            3.62801474918060       -0.04653895193424       -0.26861757489966
H            3.95389396768842        1.70696207205355       -0.20725800474851
H            1.37088947302557       -2.83595814616182       -1.31433010015672
H           -2.21515301586125        3.06617375436132       -0.18619543705543
H           -3.11124297281882        1.83206700869156       -1.12701305437191
H           -3.27739348675444        1.89247684407680        0.63265472268018
H           -0.39361628282812       -3.08444619745000        0.56536511681435
H           -0.96694142831798       -2.88725573475359       -1.11500922327826
H           -2.06780478371448       -2.57835871817103        0.21882131186686
H            2.29792277492797       -1.38423749626240        1.07623729319507

          :  Hamiltonian                  GFN2-xTB          :
         :: total energy             -42.066479673462 Eh    ::
         :: gradient norm              0.002053703135 Eh/a0 ::
         :: HOMO-LUMO gap              0.598115964199 eV    ::
         :: SCC energy               -42.584395445943 Eh    ::
         :: -> dispersion             -0.022377451632 Eh    ::
         :: repulsion energy           0.517772709062 Eh    ::

    * Orbital Energies and Occupations

         #    Occupation            Energy/Eh            Energy/eV
      -------------------------------------------------------------
         1        2.0000           -0.9003462             -24.4997
       ...           ...                  ...                  ...
        25        1.9999           -0.6826478             -18.5758
        26        1.9999           -0.6750954             -18.3703
        27        1.9996           -0.6590789             -17.9344
        28        1.9993           -0.6510014             -17.7147
        29        1.9990           -0.6441693             -17.5287
        30        1.9986           -0.6392073             -17.3937
        31        1.9938           -0.6157711             -16.7560
        32        1.9915           -0.6107469             -16.6193
        33        1.9855           -0.6023157             -16.3898
        34        1.9557           -0.5844197             -15.9029
        35        1.9444           -0.5807296             -15.8025
        36        1.7055           -0.5522484             -15.0274
        37        1.5173           -0.5425691             -14.7641 (HOMO)
        38        0.8791           -0.5205888             -14.1659 (LUMO)
        39        0.0285           -0.4573440             -12.4450
        40        0.0024           -0.4177510             -11.3676
        41        0.0004           -0.3913385             -10.6489
        42        0.0000           -0.3095037              -8.4220
        43                         -0.2180863              -5.9344
        44                         -0.1791794              -4.8757
        45                         -0.1592285              -4.3328
        46                         -0.1138548              -3.0981
        47                         -0.0888667              -2.4182
        48                         -0.0382109              -1.0398
       ...                                ...                  ...
        67                          0.5702324              15.5168
      -------------------------------------------------------------
                  HL-Gap            0.0219804 Eh            0.5981 eV

     #   Z          covCN         q      C6AA      α(0)
     1   6 C        3.685    -0.054    21.762     6.679
     2   7 N        1.837    -0.097    23.891     7.243
     3   6 C        1.846    -0.070    33.049     9.287
     4   7 N        2.685    -0.002    21.310     6.856
     5   6 C        2.837     0.085    26.090     8.371
     6   6 C        2.883     0.047    26.947     8.510
     7   6 C        2.776     0.274    22.370     7.747
     8   8 O        0.858    -0.285    19.516     5.923
     9   7 N        2.737    -0.068    22.559     7.054
    10   6 C        3.709    -0.065    21.897     6.688
    11   6 C        2.726     0.317    21.608     7.610
    12   8 O        0.860    -0.335    20.431     6.060
    13   7 N        2.738    -0.024    21.705     6.919
    14   6 C        3.702    -0.069    21.994     6.706
    15   1 H        0.924     0.121     1.603     1.980
    16   1 H        0.924     0.080     1.975     2.198
    17   1 H        0.924     0.133     1.509     1.921
    18   1 H        0.925     0.110     1.699     2.038
    19   1 H        0.925     0.120     1.615     1.987
    20   1 H        0.925     0.112     1.680     2.027
    21   1 H        0.924     0.108     1.713     2.047
    22   1 H        0.925     0.092     1.861     2.134
    23   1 H        0.924     0.106     1.730     2.057
    24   1 H        0.924     0.128     1.553     1.949
    25   1 H        0.859     0.236     0.939     1.518

Wiberg/Mayer (AO) data.
largest (>0.10) Wiberg bond orders for each atom

     #   Z sym  total        # sym  WBO       # sym  WBO       # sym  WBO
 ---------------------------------------------------------------------------
     1   6 C    3.904 --     2 N    1.096    16 H    0.930    17 H    0.919
                            15 H    0.909
     2   7 N    2.802 --     6 C    1.587     1 C    1.096
     3   6 C    2.697 --     4 N    1.655    18 H    0.928
     4   7 N    3.645 --     3 C    1.655     5 C    1.025    25 H    0.892
     5   6 C    3.636 --    13 N    1.267     6 C    1.180     4 N    1.025
     6   6 C    3.917 --     2 N    1.587     5 C    1.180     7 C    0.937
     7   6 C    3.917 --     8 O    1.765     9 N    1.122     6 C    0.937
     8   8 O    2.056 --     7 C    1.765     9 N    0.137
     9   7 N    3.540 --    11 C    1.128     7 C    1.122    10 C    0.964
                             8 O    0.137    12 O    0.129
    10   6 C    3.884 --    19 H    0.964     9 N    0.964    20 H    0.957
                            21 H    0.953
    11   6 C    3.937 --    12 O    1.708     9 N    1.128    13 N    1.017
    12   8 O    2.017 --    11 C    1.708     9 N    0.129
    13   7 N    3.493 --     5 C    1.267    11 C    1.017    14 C    0.979
    14   6 C    3.908 --    13 N    0.979    22 H    0.968    24 H    0.957
                            23 H    0.950
    15   1 H    0.949 --     1 C    0.909
    16   1 H    0.947 --     1 C    0.930
    17   1 H    0.942 --     1 C    0.919
    18   1 H    0.953 --     3 C    0.928
    19   1 H    0.981 --    10 C    0.964
    20   1 H    0.976 --    10 C    0.957
    21   1 H    0.973 --    10 C    0.953
    22   1 H    0.986 --    14 C    0.968
    23   1 H    0.972 --    14 C    0.950
    24   1 H    0.978 --    14 C    0.957
    25   1 H    0.926 --     4 N    0.892
 ---------------------------------------------------------------------------

molecular dipole:
                 x           y           z       tot (Debye)
 q only:        1.671      -1.303       0.302
   full:        1.694      -1.495       0.301       5.792

           -------------------------------------------------
          | TOTAL ENERGY              -42.066479673462 Eh   |
          | GRADIENT NORM               0.002053703135 Eh/α |
          | HOMO-LUMO GAP               0.598115964199 eV   |
           -------------------------------------------------

 * finished run on 2024/06/05 at 19:59:07.819
