   * xtb version 6.6.1 (8d0f1dd) compiled by 'conda@1efc2f54142f' on 2023-08-01
          program call               : xtb struc.xyz --opt loose --input .xc1 --gfn2

   ID    Z sym.   atoms
    1    6 C      1, 3, 5-7, 10, 11, 14
    2    7 N      2, 4, 9, 13
    3    8 O      8, 12
    4    1 H      15-25
constraining bond 8 16 to    5.6333300 Å, actual value:    3.8788743 Å

          :  Hamiltonian                  GFN2-xTB          :
 * total energy  :   -47.7439314 Eh     change       -0.6650680E-10 Eh
 * total energy  :   -53.3126341 Eh     change       -0.5568703E+01 Eh
 * total energy  :   -60.7044496 Eh     change       -0.7391815E+01 Eh
 * total energy  :   -70.1579367 Eh     change       -0.9453487E+01 Eh
 * total energy  :   -81.6066802 Eh     change       -0.1144874E+02 Eh
 * total energy  :   -80.2586381 Eh     change        0.1348042E+01 Eh
 * total energy  :   -86.6432137 Eh     change       -0.6384576E+01 Eh
 * total energy  :   -87.4084857 Eh     change       -0.7652720E+00 Eh
 * total energy  :   -88.8419260 Eh     change       -0.1433440E+01 Eh
 * total energy  :   -88.7422109 Eh     change        0.9971508E-01 Eh
 * total energy  :   -89.1674190 Eh     change       -0.1528575E-03 Eh
 * total energy  :   -89.1674782 Eh     change       -0.5919329E-04 Eh
 * total energy  :   -89.1676276 Eh     change       -0.1493925E-03 Eh
 * total energy  :   -89.1677343 Eh     change       -0.1066836E-03 Eh
 * total energy  :   -89.1678494 Eh     change       -0.1150954E-03 Eh
 * total energy  :   -89.1679543 Eh     change       -0.1049083E-03 Eh
 * total energy  :   -89.1677228 Eh     change        0.2314707E-03 Eh
 * total energy  :   -89.1680478 Eh     change       -0.3249198E-03 Eh
 * total energy  :   -89.1680863 Eh     change       -0.3856597E-04 Eh
   *** GEOMETRY OPTIMIZATION CONVERGED AFTER 79 ITERATIONS ***

 final structure:
================
25
 xtb: 6.6.1 (8d0f1dd)
C            3.27925168691563        0.93555692188475       -0.01542220306862
N            2.33500562722117       -0.01783262400308        0.03289810289227
C            2.55465266701802       -1.36328542344018        0.11400462814287
N            1.35607261560465       -2.02496049004087        0.11533306313898
C            0.36461626691919       -1.12286665483286        0.04278352285947
C            0.94402169188406        0.16299933858870       -0.00005111196719
C            0.12238529547644        1.27080389659618       -0.01869500700783
O            2.96693927972457        2.23126833071571       -0.18511569563132
N           -1.22660597310532        1.05657499894639       -0.00925891916474
C           -2.14816041901844        2.17577960094452       -0.00391267916599
C           -1.83443050910367       -0.19563822023794       -0.01601348542662
O           -3.02729315062379       -0.32074750148907       -0.04129796961804
N           -0.97921180327204       -1.30723546419965        0.01464554724693
C           -1.55418747818839       -2.63644664567273        0.01190503970613
H            4.30710038964188        0.63168933248027        0.09361290144819
H            2.78580402942702        2.44033021231259       -0.44348904834789
H            0.45746779535998        2.29203141927695       -0.01405970838038
H            3.51246417721983       -1.82878350961784        0.16216412672217
H           -1.60051113189547        3.10837727187775        0.08724905305029
H           -2.73599966114300        2.17893856671855       -0.92307520251110
H           -2.84243161173237        2.07173048852560        0.83077697111607
H           -1.29615200502565       -3.16691994145369        0.92919773692065
H           -1.20565225430344       -3.19831255708749       -0.85534775964246
H           -2.63617051981147       -2.52749167568131       -0.04384989806596
H            1.26145650891069       -3.02732112950996        0.16618961265254

          :  Hamiltonian                  GFN2-xTB          :
         :: total energy             -89.168086332037 Eh    ::
         :: gradient norm              0.003322797239 Eh/a0 ::
         :: HOMO-LUMO gap              1.129998678875 eV    ::
         :: SCC energy               -42.745133963067 Eh    ::
         :: -> dispersion             -0.022608992352 Eh    ::
         :: repulsion energy           2.880983594411 Eh    ::

    * Orbital Energies and Occupations

         #    Occupation            Energy/Eh            Energy/eV
      -------------------------------------------------------------
         1        2.0000           -0.9022130             -24.5505
       ...           ...                  ...                  ...
        25        2.0000           -0.6645393             -18.0830
        26        2.0000           -0.6604068             -17.9706
        27        2.0000           -0.6457169             -17.5708
        28        2.0000           -0.6412194             -17.4485
        29        2.0000           -0.6396956             -17.4070
        30        1.9999           -0.6176191             -16.8063
        31        1.9999           -0.6168261             -16.7847
        32        1.9999           -0.6119505             -16.6520
        33        1.9999           -0.6077487             -16.5377
        34        1.9995           -0.5875054             -15.9868
        35        1.9980           -0.5657319             -15.3943
        36        1.9946           -0.5502060             -14.9719
        37        1.5692           -0.4770160             -12.9803 (HOMO)
        38        0.4183           -0.4354894             -11.8503 (LUMO)
        39        0.0175           -0.3816824             -10.3861
        40        0.0034           -0.3553694              -9.6701
        41        0.0000           -0.2878787              -7.8336
        42        0.0000           -0.1983675              -5.3979
        43                         -0.1732455              -4.7142
        44                         -0.1304924              -3.5509
        45                         -0.1164563              -3.1689
        46                         -0.0758967              -2.0653
        47                         -0.0635185              -1.7284
        48                         -0.0282193              -0.7679
       ...                                ...                  ...
        67                          6.2440982             169.9106
      -------------------------------------------------------------
                  HL-Gap            0.0415267 Eh            1.1300 eV

     #   Z          covCN         q      C6AA      α(0)
     1   6 C        2.763     0.095    25.877     8.331
     2   7 N        2.798     0.056    20.266     6.686
     3   6 C        3.014    -0.010    28.253     8.719
     4   7 N        2.765    -0.057    22.337     7.019
     5   6 C        3.021     0.100    25.761     8.326
     6   6 C        3.068     0.013    27.659     8.624
     7   6 C        2.850    -0.007    28.191     8.702
     8   8 O        1.664    -0.367    20.221     6.070
     9   7 N        2.745    -0.026    21.754     6.927
    10   6 C        3.709    -0.068    21.953     6.697
    11   6 C        2.729     0.312    21.696     7.626
    12   8 O        0.859    -0.372    21.130     6.163
    13   7 N        2.737    -0.057    22.339     7.020
    14   6 C        3.698    -0.071    22.024     6.712
    15   1 H        0.926     0.097     1.810     2.104
    16   1 H        0.862     0.369     0.541     1.152
    17   1 H        0.926     0.095     1.827     2.114
    18   1 H        0.927     0.102     1.769     2.080
    19   1 H        0.925     0.087     1.907     2.160
    20   1 H        0.924     0.102     1.767     2.079
    21   1 H        0.924     0.105     1.740     2.063
    22   1 H        0.924     0.081     1.974     2.197
    23   1 H        0.924     0.080     1.980     2.201
    24   1 H        0.925     0.123     1.591     1.973
    25   1 H        0.860     0.219     1.013     1.577

Wiberg/Mayer (AO) data.
largest (>0.10) Wiberg bond orders for each atom

     #   Z sym  total        # sym  WBO       # sym  WBO       # sym  WBO
 ---------------------------------------------------------------------------
     1   6 C    3.552 --     2 N    1.261     8 O    1.129    15 H    0.948
                             3 C    0.116
     2   7 N    3.687 --     1 C    1.261     3 C    1.196     6 C    1.060
     3   6 C    3.633 --     2 N    1.196     4 N    1.192    18 H    0.961
                             1 C    0.116
     4   7 N    3.550 --     5 C    1.252     3 C    1.192    25 H    0.923
     5   6 C    3.843 --     4 N    1.252     6 C    1.222    13 N    1.174
     6   6 C    3.907 --     7 C    1.391     5 C    1.222     2 N    1.060
     7   6 C    3.695 --     6 C    1.391     9 N    1.205    17 H    0.955
     8   8 O    2.118 --     1 C    1.129    16 H    0.856
     9   7 N    3.523 --     7 C    1.205    11 C    1.094    10 C    0.983
                            12 O    0.127
    10   6 C    3.929 --     9 N    0.983    19 H    0.977    21 H    0.964
                            20 H    0.962
    11   6 C    3.946 --    12 O    1.701     9 N    1.094    13 N    1.060
    12   8 O    2.051 --    11 C    1.701    13 N    0.132     9 N    0.127
    13   7 N    3.486 --     5 C    1.174    11 C    1.060    14 C    0.979
                            12 O    0.132
    14   6 C    3.930 --    13 N    0.979    23 H    0.970    22 H    0.970
                            24 H    0.966
    15   1 H    0.989 --     1 C    0.948
    16   1 H    0.862 --     8 O    0.856
    17   1 H    0.990 --     7 C    0.955
    18   1 H    0.989 --     3 C    0.961
    19   1 H    0.992 --    10 C    0.977
    20   1 H    0.981 --    10 C    0.962
    21   1 H    0.982 --    10 C    0.964
    22   1 H    0.988 --    14 C    0.970
    23   1 H    0.989 --    14 C    0.970
    24   1 H    0.984 --    14 C    0.966
    25   1 H    0.951 --     4 N    0.923
 ---------------------------------------------------------------------------

molecular dipole:
                 x           y           z       tot (Debye)
 q only:        2.034      -0.681      -0.050
   full:        2.276      -0.761      -0.161       6.113

           -------------------------------------------------
          | TOTAL ENERGY              -89.168086332037 Eh   |
          | GRADIENT NORM               0.003322797239 Eh/α |
          | HOMO-LUMO GAP               1.129998678875 eV   |
           -------------------------------------------------

 * finished run on 2024/06/05 at 19:59:28.201
