   * xtb version 6.6.1 (8d0f1dd) compiled by 'conda@1efc2f54142f' on 2023-08-01
          program call               : xtb struc.xyz --opt loose --input .xc1 --gfn2

   ID    Z sym.   atoms
    1    6 C      1, 3, 5-7, 10, 11, 14
    2    7 N      2, 4, 9, 13
    3    8 O      8, 12
    4    1 H      15-25
constraining bond 3 17 to    3.7133300 Å, actual value:    3.3163079 Å

          :  Hamiltonian                  GFN2-xTB          :
 * total energy  :   -42.5293058 Eh     change       -0.6650680E-10 Eh
 * total energy  :   -44.2603837 Eh     change       -0.1731078E+01 Eh
 * total energy  :   -47.2912852 Eh     change       -0.3030901E+01 Eh
 * total energy  :   -51.6400638 Eh     change       -0.4348779E+01 Eh
 * total energy  :   -57.2762156 Eh     change       -0.5636152E+01 Eh
 * total energy  :   -36.8102666 Eh     change        0.2046595E+02 Eh
 * total energy  :   -58.9768378 Eh     change       -0.2216657E+02 Eh
 * total energy  :   -59.1177778 Eh     change       -0.1409399E+00 Eh
 * total energy  :   -59.2439229 Eh     change       -0.1261451E+00 Eh
 * total energy  :   -59.3335971 Eh     change       -0.8967423E-01 Eh
 * total energy  :   -59.7423782 Eh     change       -0.7231595E-04 Eh
 * total energy  :   -59.7424267 Eh     change       -0.4850478E-04 Eh
 * total energy  :   -59.7424214 Eh     change        0.5349762E-05 Eh
 * total energy  :   -59.7424697 Eh     change       -0.4837494E-04 Eh
 * total energy  :   -59.7425025 Eh     change       -0.3273041E-04 Eh
 * total energy  :   -59.7425196 Eh     change       -0.1716766E-04 Eh
 * total energy  :   -59.7425327 Eh     change       -0.1301034E-04 Eh
 * total energy  :   -59.7425399 Eh     change       -0.7205478E-05 Eh
 * total energy  :   -59.7425457 Eh     change       -0.5887329E-05 Eh
   *** GEOMETRY OPTIMIZATION CONVERGED AFTER 67 ITERATIONS ***

 final structure:
================
25
 xtb: 6.6.1 (8d0f1dd)
C            3.26577213729447        1.16024352066298       -0.09773796692641
N            2.19782320253808        0.25615654364500       -0.07901298297087
C            3.50523696962168       -0.35420715000995       -0.19191545076047
N            1.15334011405759       -2.21623818269217       -0.07798800988031
C            0.34039690475368       -1.23955600911646       -0.04655298137461
C            0.91710096180801        0.09831188122302       -0.02873132746380
C            0.07013092922322        1.30805073956111        0.04296997093040
O            0.55339458425636        2.41758447305486        0.06885708561889
N           -1.27834566786728        1.05768673807006        0.07361626225169
C           -2.19174483286802        2.18545564588634        0.14205191704965
C           -1.87651342157400       -0.19877849824214        0.03146484673717
O           -3.07266352600842       -0.31144761369232        0.04726638529893
N           -1.03685941749831       -1.30585640480109       -0.02692403344636
C           -1.66940358469621       -2.61359606509367       -0.06847787691993
H            3.46430814896228        1.71483204166767        0.81230188916833
H            3.38194765847924        1.75683458836643       -0.99791301040092
H            3.63494770796347       -0.55126156985881       -0.54462651567261
H            3.78232983716764       -0.75603669948017        0.82211904193600
H           -1.60575313114480        3.10161586360415        0.15787967855703
H           -2.85782757927500        2.17488818997904       -0.72167249972256
H           -2.80459214158391        2.11082081725977        1.04139055119897
H           -1.37919005983199       -3.20405934650518        0.80234485398101
H           -1.38893267540576       -3.14020806232012       -0.98232427623741
H           -2.74840603172384       -2.46912559553414       -0.05672479715091
H            0.80393442745247       -3.16387130403281       -0.09048913590000

          :  Hamiltonian                  GFN2-xTB          :
         :: total energy             -59.742545746711 Eh    ::
         :: gradient norm              0.001313527346 Eh/a0 ::
         :: HOMO-LUMO gap              1.714014727956 eV    ::
         :: SCC energy               -42.696867412062 Eh    ::
         :: -> dispersion             -0.021791955846 Eh    ::
         :: repulsion energy           2.269183666159 Eh    ::

    * Orbital Energies and Occupations

         #    Occupation            Energy/Eh            Energy/eV
      -------------------------------------------------------------
         1        2.0000           -0.8963833             -24.3918
       ...           ...                  ...                  ...
        25        1.9994           -0.6590024             -17.9324
        26        1.9993           -0.6565620             -17.8660
        27        1.9989           -0.6483015             -17.6412
        28        1.9988           -0.6471792             -17.6106
        29        1.9981           -0.6398056             -17.4100
        30        1.9966           -0.6310102             -17.1707
        31        1.9961           -0.6286228             -17.1057
        32        1.9921           -0.6175671             -16.8049
        33        1.9706           -0.5965638             -16.2333
        34        1.9498           -0.5879136             -15.9979
        35        1.9399           -0.5849738             -15.9179
        36        1.8897           -0.5749332             -15.6447
        37        1.8634           -0.5713278             -15.5466 (HOMO)
        38        0.4068           -0.5083389             -13.8326 (LUMO)
        39        0.0006           -0.4007754             -10.9057
        40        0.0003           -0.3901721             -10.6171
        41        0.0000           -0.3042531              -8.2791
        42        0.0000           -0.3020313              -8.2187
        43                         -0.2182496              -5.9389
        44                         -0.1749971              -4.7619
        45                         -0.1399582              -3.8085
        46                         -0.0992415              -2.7005
        47                         -0.0689342              -1.8758
        48                         -0.0530560              -1.4437
       ...                                ...                  ...
        67                         10.7249147             291.8398
      -------------------------------------------------------------
                  HL-Gap            0.0629889 Eh            1.7140 eV

     #   Z          covCN         q      C6AA      α(0)
     1   6 C        3.737    -0.020    21.015     6.542
     2   7 N        2.747     0.080    19.847     6.617
     3   6 C        3.731    -0.066    21.860     6.674
     4   7 N        1.792    -0.286    28.249     7.873
     5   6 C        2.827     0.165    24.443     8.101
     6   6 C        2.900     0.040    27.098     8.535
     7   6 C        2.772     0.268    22.484     7.766
     8   8 O        0.858    -0.337    20.454     6.064
     9   7 N        2.740    -0.065    22.507     7.046
    10   6 C        3.707    -0.063    21.857     6.683
    11   6 C        2.716     0.323    21.513     7.593
    12   8 O        0.860    -0.335    20.422     6.059
    13   7 N        2.741    -0.069    22.584     7.058
    14   6 C        3.703    -0.064    21.892     6.690
    15   1 H        0.925     0.128     1.550     1.947
    16   1 H        0.925     0.131     1.528     1.933
    17   1 H        0.936     0.194     1.128     1.661
    18   1 H        0.919     0.122     1.596     1.976
    19   1 H        0.925     0.118     1.626     1.994
    20   1 H        0.924     0.113     1.672     2.022
    21   1 H        0.924     0.112     1.675     2.024
    22   1 H        0.924     0.093     1.849     2.126
    23   1 H        0.924     0.093     1.848     2.126
    24   1 H        0.925     0.123     1.586     1.969
    25   1 H        0.860     0.201     1.101     1.644

Wiberg/Mayer (AO) data.
largest (>0.10) Wiberg bond orders for each atom

     #   Z sym  total        # sym  WBO       # sym  WBO       # sym  WBO
 ---------------------------------------------------------------------------
     1   6 C    3.888 --     2 N    0.985     3 C    0.962    15 H    0.944
                            16 H    0.939
     2   7 N    3.520 --     6 C    1.503     1 C    0.985     3 C    0.941
     3   6 C    3.845 --     1 C    0.962     2 N    0.941    17 H    0.940
                            18 H    0.926
     4   7 N    2.844 --     5 C    1.677    25 H    0.921    13 N    0.122
     5   6 C    3.947 --     4 N    1.677    13 N    1.122     6 C    1.057
     6   6 C    3.781 --     2 N    1.503     5 C    1.057     7 C    1.000
     7   6 C    3.930 --     8 O    1.684     9 N    1.151     6 C    1.000
     8   8 O    1.973 --     7 C    1.684     9 N    0.148
     9   7 N    3.523 --     7 C    1.151    11 C    1.079    10 C    0.974
                             8 O    0.148    12 O    0.104
    10   6 C    3.881 --     9 N    0.974    19 H    0.964    20 H    0.949
                            21 H    0.949
    11   6 C    3.949 --    12 O    1.696    13 N    1.091     9 N    1.079
    12   8 O    2.013 --    11 C    1.696    13 N    0.113     9 N    0.104
    13   7 N    3.492 --     5 C    1.122    11 C    1.091    14 C    0.978
                             4 N    0.122    12 O    0.113
    14   6 C    3.904 --    13 N    0.978    24 H    0.961    23 H    0.959
                            22 H    0.959
    15   1 H    0.973 --     1 C    0.944
    16   1 H    0.971 --     1 C    0.939
    17   1 H    0.959 --     3 C    0.940
    18   1 H    0.969 --     3 C    0.926
    19   1 H    0.981 --    10 C    0.964
    20   1 H    0.967 --    10 C    0.949
    21   1 H    0.967 --    10 C    0.949
    22   1 H    0.977 --    14 C    0.959
    23   1 H    0.978 --    14 C    0.959
    24   1 H    0.981 --    14 C    0.961
    25   1 H    0.951 --     4 N    0.921
 ---------------------------------------------------------------------------

molecular dipole:
                 x           y           z       tot (Debye)
 q only:        2.060      -0.658      -0.043
   full:        1.768      -0.860       0.020       4.998

           -------------------------------------------------
          | TOTAL ENERGY              -59.742545746711 Eh   |
          | GRADIENT NORM               0.001313527346 Eh/α |
          | HOMO-LUMO GAP               1.714014727956 eV   |
           -------------------------------------------------

 * finished run on 2024/06/05 at 19:58:07.102
