   * xtb version 6.6.1 (8d0f1dd) compiled by 'conda@1efc2f54142f' on 2023-08-01
          program call               : xtb xtbopt.xyz --opt crude --input .xc2 --gfn2

   ID    Z sym.   atoms
    1    7 N      1, 17
    2    6 C      2-6, 8, 9, 11-16, 18-23, 25, 26, 28-33
    3    8 O      7, 10, 24, 27
    4    1 H      34-72

          :  Hamiltonian                  GFN2-xTB          :
 * total energy  :   -99.2400692 Eh     change       -0.1095657E-10 Eh
   *** GEOMETRY OPTIMIZATION CONVERGED AFTER 1 ITERATIONS ***

 final structure:
================
72
 xtb: 6.6.1 (8d0f1dd)
N           -1.81613956258095        2.77531945006139        2.14163733984654
C           -1.88451691023718        2.07471872782792        1.11304417746176
C           -3.09568699325646        1.91285402399602        0.24071165682684
C           -3.59314079507655        0.48004704241730        0.33700063968613
C           -4.52184917371789       -0.00147404330514       -0.58653761806974
C           -5.00270411369658       -1.29855604481216       -0.51999378754313
O           -5.89604773189846       -1.84376720257544       -1.37371927485488
C           -6.49282323485491       -1.03154429991393       -2.35716150435804
C           -4.54368771151299       -2.16356779797510        0.50887945543417
O           -5.05083993354972       -3.41418682138449        0.48668402709251
C           -4.69294516175762       -4.31510384543446        1.50847717001421
C           -3.63751814784949       -1.67304277175646        1.43497493655786
C           -3.16978790143271       -0.36801868346201        1.34854610591331
C           -2.59499294932978        2.21801435983285       -1.19626808653642
C           -1.69443960826678        1.12942343725465       -1.79920345781668
C           -0.37706015240963        1.03006115039201       -1.08444983490364
N            0.32957736278442       -0.21717631036998       -1.17344232260738
C            1.76482097749799       -0.21306196778063       -0.93289764291162
C            1.26586514576024       -0.48778891340011       -2.29486227674707
C            4.79294561963634        0.07332252553861       -0.49989424781196
C            5.40231193940168        1.26902633854674       -0.75338395196605
C            6.74703665440499        1.40269514010654       -0.40311982105681
C            7.43181993068529        0.34716111760659        0.18144364600283
O            8.72747018063062        0.37250807004221        0.56362037227206
C            9.47220842898223        1.55406310641759        0.38367117867079
C            6.76433969492905       -0.88547301718801        0.42095788782039
O            7.51087148929465       -1.85469904618640        0.98695142299403
C            6.93096497030970       -3.11028890669099        1.24475571790496
C            5.41961490304242       -1.00424067102469        0.06686053455491
C           -0.42105703452329       -1.37485131999670       -0.68884928662026
C           -4.27112178653874        2.86340714827581        0.61496749803779
C           -4.82324880273086        2.54932935202581        2.00299302585598
C           -3.89574434611552        4.34002062593028        0.53397766703011
H           -4.88019308951925        0.65285823605205       -1.36378801341974
H           -7.01994787437685       -0.18309413178138       -1.91082150477307
H           -7.20916768521810       -1.67171331146513       -2.86835297088766
H           -5.75634920325444       -0.66613965088108       -3.08052676046131
H           -5.01631932401691       -3.95635440792763        2.48991010299618
H           -5.21143434224093       -5.24258891108742        1.27503343409634
H           -3.61387620634239       -4.49791243710812        1.52399694724573
H           -3.29603950053995       -2.29651922231419        2.24523977852471
H           -2.48850600945216       -0.01029183142248        2.10561180693179
H           -3.45555980210800        2.35716254220487       -1.84990873292737
H           -2.04026068108880        3.15670255824485       -1.17653451402414
H           -2.22643409252395        0.17885827160353       -1.76878293538729
H           -1.54393541384836        1.38799040008886       -2.85847660872215
H           -1.01809108913108        1.52742326539572        0.64222316011200
H            0.28598089770558        1.86888646493762       -1.26204110408339
H            2.16499576318309       -1.01978212338911       -0.33654144362673
H            2.22067426782000        0.74433423736941       -0.72101840362958
H            1.33285752332795        0.28695358697934       -3.04419808150875
H            1.28383756618399       -1.49562133468934       -2.68126094446696
H            4.88599281737386        2.09889494771050       -1.20974659163393
H            7.24263729366544        2.34034822694673       -0.59744241951656
H            9.03551773735159        2.39139223459081        0.93688862784796
H            9.55580530287269        1.81825261845959       -0.67504763936531
H           10.46237796992408        1.33746842732871        0.78021543357640
H            7.72121078893668       -3.71294838410022        1.68863505195818
H            6.09846340900423       -3.03000100852281        1.95163860849951
H            6.58571666553658       -3.58921989096126        0.32279894293112
H            4.89524985235274       -1.93135931931419        0.23954767935913
H           -1.17348505739025       -1.66840361387902       -1.41820380558405
H           -0.92493966644564       -1.11946865593547        0.24297185761956
H            0.24763874404458       -2.21573376270227       -0.52390342179194
H           -5.06491185007059        2.67221558076908       -0.11661153044040
H           -4.06255607749940        2.73144926801127        2.75570694783753
H           -5.14969409484217        1.51462675738629        2.07278907506996
H           -5.67525417021868        3.19154914545024        2.21025048933797
H           -3.08382648146691        4.56057836442952        1.22052265417605
H           -3.60354130924732        4.63020270183244       -0.47151880160112
H           -4.75432154538979        4.94295628395543        0.81828487446239
H           -0.92829168205397        2.84505744721682        2.62735425170452

          :  Hamiltonian                  GFN2-xTB          :
         :: total energy             -99.240069196210 Eh    ::
         :: gradient norm              0.002301123581 Eh/a0 ::
         :: HOMO-LUMO gap              0.188798361547 eV    ::
         :: SCC energy              -100.609028242827 Eh    ::
         :: -> dispersion             -0.072790122741 Eh    ::
         :: repulsion energy           1.367568589017 Eh    ::

    * Orbital Energies and Occupations

         #    Occupation            Energy/Eh            Energy/eV
      -------------------------------------------------------------
         1        2.0000           -0.8460182             -23.0213
       ...           ...                  ...                  ...
        78        1.9983           -0.5248439             -14.2817
        79        1.9983           -0.5241417             -14.2626
        80        1.9975           -0.5184476             -14.1077
        81        1.9972           -0.5164299             -14.0528
        82        1.9958           -0.5101669             -13.8823
        83        1.9956           -0.5095013             -13.8642
        84        1.9940           -0.5044738             -13.7274
        85        1.9815           -0.4866234             -13.2417
        86        1.9734           -0.4807998             -13.0832
        87        1.9647           -0.4762542             -12.9595
        88        1.8790           -0.4560462             -12.4096
        89        1.8185           -0.4491141             -12.2210
        90        1.3008           -0.4224514             -11.4955 (HOMO)
        91        1.0911           -0.4155132             -11.3067 (LUMO)
        92        0.0128           -0.3327296              -9.0540
        93        0.0036           -0.3125179              -8.5040
        94        0.0030           -0.3097232              -8.4280
        95        0.0025           -0.3068214              -8.3490
        96        0.0010           -0.2930471              -7.9742
        97        0.0001           -0.2543729              -6.9218
        98        0.0000           -0.1870864              -5.0909
        99        0.0000           -0.1847949              -5.0285
       100        0.0000           -0.1722987              -4.6885
       101                         -0.0944927              -2.5713
       ...                                ...                  ...
       171                          0.5787356              15.7482
      -------------------------------------------------------------
                  HL-Gap            0.0069382 Eh            0.1888 eV

     #   Z          covCN         q      C6AA      α(0)
     1   7 N        1.773    -0.257    27.492     7.764
     2   6 C        2.826     0.093    25.918     8.342
     3   6 C        3.908     0.007    20.405     6.421
     4   6 C        2.975     0.006    27.893     8.663
     5   6 C        2.921    -0.078    29.957     8.976
     6   6 C        2.862     0.128    25.192     8.227
     7   8 O        1.706    -0.233    17.863     5.706
     8   6 C        3.644     0.028    20.434     6.498
     9   6 C        2.864     0.127    25.217     8.231
    10   8 O        1.706    -0.232    17.841     5.703
    11   6 C        3.645     0.027    20.447     6.499
    12   6 C        2.914    -0.076    29.896     8.966
    13   6 C        2.922    -0.055    29.370     8.887
    14   6 C        3.815    -0.063    21.700     6.630
    15   6 C        3.800    -0.059    21.638     6.623
    16   6 C        2.830    -0.129    31.291     9.167
    17   7 N        3.628     0.136    18.927     6.462
    18   6 C        3.746    -0.029    21.165     6.562
    19   6 C        3.741    -0.038    21.332     6.590
    20   6 C        2.009    -0.110    34.078     9.428
    21   6 C        2.913    -0.031    28.768     8.795
    22   6 C        2.923    -0.063    29.573     8.918
    23   6 C        2.862     0.130    25.160     8.222
    24   8 O        1.706    -0.229    17.804     5.697
    25   6 C        3.645     0.028    20.444     6.499
    26   6 C        2.870     0.135    25.052     8.205
    27   8 O        1.706    -0.224    17.717     5.683
    28   6 C        3.645     0.030    20.403     6.492
    29   6 C        2.912    -0.062    29.538     8.912
    30   6 C        3.700    -0.083    22.261     6.747
    31   6 C        3.853    -0.007    20.664     6.465
    32   6 C        3.756    -0.118    22.815     6.810
    33   6 C        3.755    -0.118    22.806     6.809
    34   1 H        0.926     0.053     2.285     2.364
    35   1 H        0.924     0.053     2.277     2.360
    36   1 H        0.925     0.080     1.981     2.201
    37   1 H        0.924     0.046     2.370     2.407
    38   1 H        0.924     0.055     2.259     2.350
    39   1 H        0.925     0.080     1.980     2.200
    40   1 H        0.924     0.045     2.378     2.412
    41   1 H        0.926     0.050     2.319     2.381
    42   1 H        0.926     0.038     2.471     2.458
    43   1 H        0.925     0.052     2.297     2.370
    44   1 H        0.924     0.051     2.312     2.378
    45   1 H        0.925     0.037     2.488     2.466
    46   1 H        0.923     0.040     2.451     2.448
    47   1 H        0.918     0.040     2.447     2.447
    48   1 H        0.925     0.028     2.621     2.532
    49   1 H        0.926     0.096     1.825     2.113
    50   1 H        0.925     0.108     1.713     2.047
    51   1 H        0.926     0.097     1.814     2.106
    52   1 H        0.926     0.091     1.867     2.137
    53   1 H        0.926     0.045     2.388     2.417
    54   1 H        0.926     0.059     2.208     2.324
    55   1 H        0.924     0.053     2.287     2.365
    56   1 H        0.924     0.054     2.277     2.360
    57   1 H        0.925     0.080     1.976     2.198
    58   1 H        0.925     0.081     1.973     2.197
    59   1 H        0.924     0.050     2.326     2.385
    60   1 H        0.924     0.051     2.308     2.376
    61   1 H        0.926     0.043     2.406     2.426
    62   1 H        0.925     0.087     1.910     2.161
    63   1 H        0.925     0.099     1.799     2.097
    64   1 H        0.925     0.082     1.956     2.187
    65   1 H        0.924     0.038     2.479     2.462
    66   1 H        0.925     0.067     2.124     2.279
    67   1 H        0.925     0.035     2.514     2.479
    68   1 H        0.925     0.050     2.314     2.379
    69   1 H        0.925     0.059     2.211     2.325
    70   1 H        0.925     0.036     2.500     2.473
    71   1 H        0.925     0.053     2.281     2.362
    72   1 H        0.860     0.160     1.334     1.809

Wiberg/Mayer (AO) data.
largest (>0.10) Wiberg bond orders for each atom

     #   Z sym  total        # sym  WBO       # sym  WBO       # sym  WBO
 ---------------------------------------------------------------------------
     1   7 N    3.032 --     2 C    1.959    72 H    0.937
     2   6 C    3.865 --     1 N    1.959     3 C    0.993    47 H    0.833
     3   6 C    3.967 --     2 C    0.993     4 C    0.971    14 C    0.955
                            31 C    0.939
     4   6 C    3.951 --    13 C    1.413     5 C    1.370     3 C    0.971
     5   6 C    3.963 --     6 C    1.401     4 C    1.370    34 H    0.958
     6   6 C    3.906 --     5 C    1.401     9 C    1.226     7 O    1.095
     7   8 O    2.251 --     6 C    1.095     8 C    0.979
     8   6 C    3.933 --     7 O    0.979    36 H    0.977    35 H    0.974
                            37 H    0.974
     9   6 C    3.902 --    12 C    1.393     6 C    1.226    10 O    1.097
    10   8 O    2.249 --     9 C    1.097    11 C    0.979
    11   6 C    3.933 --    10 O    0.979    39 H    0.977    40 H    0.974
                            38 H    0.974
    12   6 C    3.964 --    13 C    1.405     9 C    1.393    41 H    0.964
    13   6 C    3.954 --     4 C    1.413    12 C    1.405    42 H    0.962
    14   6 C    3.978 --    15 C    0.995    44 H    0.972    43 H    0.969
                             3 C    0.955
    15   6 C    3.982 --    16 C    1.030    14 C    0.995    45 H    0.966
                            46 H    0.945
    16   6 C    3.178 --    15 C    1.030    48 H    0.965    17 N    0.959
                            47 H    0.102
    17   7 N    3.741 --    30 C    0.971    16 C    0.959    18 C    0.918
                            19 C    0.867
    18   6 C    3.895 --    19 C    0.992    49 H    0.967    50 H    0.963
                            17 N    0.918
    19   6 C    3.854 --    18 C    0.992    51 H    0.971    52 H    0.970
                            17 N    0.867
    20   6 C    3.031 --    21 C    1.447    29 C    1.435
    21   6 C    3.900 --    20 C    1.447    22 C    1.360    53 H    0.961
    22   6 C    3.901 --    23 C    1.393    21 C    1.360    54 H    0.955
    23   6 C    3.886 --    22 C    1.393    26 C    1.225    24 O    1.095
    24   8 O    2.232 --    23 C    1.095    25 C    0.978
    25   6 C    3.929 --    24 O    0.978    57 H    0.977    55 H    0.973
                            56 H    0.972
    26   6 C    3.840 --    29 C    1.341    23 C    1.225    27 O    1.098
    27   8 O    2.244 --    26 C    1.098    28 C    0.978
    28   6 C    3.931 --    27 O    0.978    58 H    0.976    60 H    0.973
                            59 H    0.973
    29   6 C    3.924 --    20 C    1.435    26 C    1.341    61 H    0.954
    30   6 C    3.939 --    64 H    0.977    62 H    0.973    17 N    0.971
                            63 H    0.968
    31   6 C    3.967 --    33 C    1.009    32 C    1.009    65 H    0.959
                             3 C    0.939
    32   6 C    3.979 --    31 C    1.009    67 H    0.982    68 H    0.981
                            66 H    0.974
    33   6 C    3.983 --    31 C    1.009    70 H    0.983    71 H    0.980
                            69 H    0.977
    34   1 H    0.996 --     5 C    0.958
    35   1 H    0.994 --     8 C    0.974
    36   1 H    0.993 --     8 C    0.977
    37   1 H    0.994 --     8 C    0.974
    38   1 H    0.993 --    11 C    0.974
    39   1 H    0.993 --    11 C    0.977
    40   1 H    0.994 --    11 C    0.974
    41   1 H    0.996 --    12 C    0.964
    42   1 H    0.998 --    13 C    0.962
    43   1 H    0.996 --    14 C    0.969
    44   1 H    0.996 --    14 C    0.972
    45   1 H    0.997 --    15 C    0.966
    46   1 H    0.962 --    15 C    0.945
    47   1 H    0.975 --     2 C    0.833    16 C    0.102
    48   1 H    0.993 --    16 C    0.965
    49   1 H    0.990 --    18 C    0.967
    50   1 H    0.988 --    18 C    0.963
    51   1 H    0.991 --    19 C    0.971
    52   1 H    0.989 --    19 C    0.970
    53   1 H    0.987 --    21 C    0.961
    54   1 H    0.984 --    22 C    0.955
    55   1 H    0.991 --    25 C    0.973
    56   1 H    0.991 --    25 C    0.972
    57   1 H    0.993 --    25 C    0.977
    58   1 H    0.992 --    28 C    0.976
    59   1 H    0.993 --    28 C    0.973
    60   1 H    0.992 --    28 C    0.973
    61   1 H    0.984 --    29 C    0.954
    62   1 H    0.992 --    30 C    0.973
    63   1 H    0.990 --    30 C    0.968
    64   1 H    0.993 --    30 C    0.977
    65   1 H    0.991 --    31 C    0.959
    66   1 H    0.991 --    32 C    0.974
    67   1 H    0.997 --    32 C    0.982
    68   1 H    0.994 --    32 C    0.981
    69   1 H    0.993 --    33 C    0.977
    70   1 H    0.997 --    33 C    0.983
    71   1 H    0.994 --    33 C    0.980
    72   1 H    0.965 --     1 N    0.937
 ---------------------------------------------------------------------------

molecular dipole:
                 x           y           z       tot (Debye)
 q only:        0.749      -0.670      -1.023
   full:        1.255      -0.781      -1.315       5.028

           -------------------------------------------------
          | TOTAL ENERGY              -99.240069196210 Eh   |
          | GRADIENT NORM               0.002301123581 Eh/α |
          | HOMO-LUMO GAP               0.188798361547 eV   |
           -------------------------------------------------

 * finished run on 2024/04/06 at 11:13:46.872
