   * xtb version 6.6.1 (8d0f1dd) compiled by 'conda@1efc2f54142f' on 2023-08-01
          program call               : xtb xtbopt.xyz --opt crude --input .xc2 --gfn2

   ID    Z sym.   atoms
    1    6 C      1, 3, 5-7, 10, 11, 14
    2    7 N      2, 4, 9, 13
    3    8 O      8, 12
    4    1 H      15-25

          :  Hamiltonian                  GFN2-xTB          :
 * total energy  :   -42.1683218 Eh     change       -0.2629008E-12 Eh
   *** GEOMETRY OPTIMIZATION CONVERGED AFTER 1 ITERATIONS ***

 final structure:
================
25
 xtb: 6.6.1 (8d0f1dd)
C            3.92479645522934        2.86159365997817        0.20343859720499
N            2.20682539251922       -0.64814128471336       -0.11114898718786
C            2.26280245492302       -1.94635605846391       -0.15557517797755
N            1.01672205879974       -2.51641578293592       -0.14984335125367
C            0.12857001360269       -1.49096153648451       -0.09564732707080
C            0.89287694928034       -0.31642074798205       -0.07336266297543
C            0.25785060007088        0.97700039784903       -0.01576121013876
O            0.81356988213325        2.05458880208615       -0.00367510129573
N           -1.13816243580088        0.86997097442871        0.02831636653822
C           -1.90637412944122        2.10155520765869        0.09616592251243
C           -1.89982364280365       -0.28681728037800        0.02164625308412
O           -3.10314084144747       -0.25371974737448        0.07922700698387
N           -1.21765512810649       -1.50896094816220       -0.05808465941463
C           -1.97991114954668       -2.73924129946097       -0.07533090994079
H            4.30802817183800        3.03247228675757        1.19196045697039
H            4.59674822546071        2.85297679412230       -0.63158148496304
H            2.86956585940884        2.70289282490902        0.05178691440662
H            3.16908297882008       -2.51698149149411       -0.19225232718943
H           -1.21456768285563        2.94002141437304        0.03660174082402
H           -2.62165163262841        2.13851910147315       -0.72705447346348
H           -2.46674197474755        2.14220247189261        1.03219347825852
H           -1.71076177536751       -3.36691131529958        0.77593657209999
H           -1.80601700364447       -3.28276708176517       -1.00562454979144
H           -3.03615423000785       -2.47772422757410       -0.00690887437398
H            0.81395409841085       -3.50413659184256       -0.18425059394534

          :  Hamiltonian                  GFN2-xTB          :
         :: total energy             -42.168321752632 Eh    ::
         :: gradient norm              0.003096051191 Eh/a0 ::
         :: HOMO-LUMO gap              1.622650922150 eV    ::
         :: SCC energy               -42.690837741803 Eh    ::
         :: -> dispersion             -0.020938311500 Eh    ::
         :: repulsion energy           0.522438530670 Eh    ::

    * Orbital Energies and Occupations

         #    Occupation            Energy/Eh            Energy/eV
      -------------------------------------------------------------
         1        2.0000           -0.8879792             -24.1631
       ...           ...                  ...                  ...
        25        1.9968           -0.6570920             -17.8804
        26        1.9938           -0.6416638             -17.4606
        27        1.9909           -0.6325454             -17.2124
        28        1.9881           -0.6261123             -17.0374
        29        1.9807           -0.6144848             -16.7210
        30        1.9794           -0.6129366             -16.6789
        31        1.9781           -0.6113707             -16.6362
        32        1.9776           -0.6108594             -16.6223
        33        1.9505           -0.5917409             -16.1021
        34        1.8941           -0.5729687             -15.5913
        35        1.8925           -0.5725872             -15.5809
        36        1.8546           -0.5649407             -15.3728
        37        1.7460           -0.5502501             -14.9731 (HOMO)
        38        0.7165           -0.4906188             -13.3504 (LUMO)
        39        0.0432           -0.4139175             -11.2633
        40        0.0193           -0.3945205             -10.7354
        41        0.0056           -0.3650879              -9.9345
        42        0.0002           -0.2838717              -7.7245
        43        0.0000           -0.2027060              -5.5159
        44        0.0000           -0.1604774              -4.3668
        45        0.0000           -0.1361892              -3.7059
        46                         -0.0707385              -1.9249
        47                         -0.0494596              -1.3459
        48                         -0.0337076              -0.9172
       ...                                ...                  ...
        67                          0.5403794              14.7045
      -------------------------------------------------------------
                  HL-Gap            0.0596313 Eh            1.6227 eV

     #   Z          covCN         q      C6AA      α(0)
     1   6 C        2.778    -0.086    30.126     8.990
     2   7 N        1.904    -0.153    25.094     7.427
     3   6 C        3.148     0.103    25.475     8.256
     4   7 N        2.788    -0.078    22.748     7.084
     5   6 C        3.053     0.112    25.476     8.278
     6   6 C        3.198     0.024    26.925     8.457
     7   6 C        2.764     0.272    22.402     7.751
     8   8 O        0.858    -0.332    20.360     6.050
     9   7 N        2.745    -0.072    22.631     7.065
    10   6 C        3.709    -0.061    21.809     6.674
    11   6 C        2.732     0.317    21.613     7.611
    12   8 O        0.860    -0.341    20.540     6.076
    13   7 N        2.737    -0.042    22.054     6.975
    14   6 C        3.697    -0.070    22.013     6.711
    15   1 H        0.926     0.128     1.550     1.947
    16   1 H        0.926     0.128     1.548     1.946
    17   1 H        0.926     0.151     1.385     1.840
    18   1 H        0.926     0.112     1.683     2.028
    19   1 H        0.925     0.123     1.588     1.971
    20   1 H        0.924     0.114     1.661     2.016
    21   1 H        0.924     0.113     1.670     2.021
    22   1 H        0.924     0.094     1.845     2.124
    23   1 H        0.924     0.095     1.833     2.117
    24   1 H        0.924     0.130     1.532     1.936
    25   1 H        0.860     0.217     1.026     1.586

Wiberg/Mayer (AO) data.
largest (>0.10) Wiberg bond orders for each atom

     #   Z sym  total        # sym  WBO       # sym  WBO       # sym  WBO
 ---------------------------------------------------------------------------
     1   6 C    2.895 --    15 H    0.970    16 H    0.970    17 H    0.949
     2   7 N    2.973 --     3 C    1.550     6 C    1.259
     3   6 C    3.835 --     2 N    1.550     4 N    1.209    18 H    0.953
     4   7 N    3.560 --     5 C    1.221     3 C    1.209    25 H    0.924
     5   6 C    3.874 --     6 C    1.276     4 N    1.221    13 N    1.198
     6   6 C    3.827 --     5 C    1.276     2 N    1.259     7 C    1.076
     7   6 C    3.918 --     8 O    1.658     9 N    1.087     6 C    1.076
     8   8 O    1.940 --     7 C    1.658     9 N    0.117
     9   7 N    3.485 --    11 C    1.119     7 C    1.087    10 C    0.979
                             8 O    0.117    12 O    0.117
    10   6 C    3.863 --     9 N    0.979    19 H    0.954    20 H    0.945
                            21 H    0.943
    11   6 C    3.940 --    12 O    1.668     9 N    1.119    13 N    1.062
    12   8 O    1.966 --    11 C    1.668     9 N    0.117    13 N    0.107
    13   7 N    3.488 --     5 C    1.198    11 C    1.062    14 C    0.978
                            12 O    0.107
    14   6 C    3.898 --    13 N    0.978    22 H    0.960    23 H    0.959
                            24 H    0.957
    15   1 H    0.971 --     1 C    0.970
    16   1 H    0.971 --     1 C    0.970
    17   1 H    0.963 --     1 C    0.949
    18   1 H    0.983 --     3 C    0.953
    19   1 H    0.972 --    10 C    0.954
    20   1 H    0.962 --    10 C    0.945
    21   1 H    0.960 --    10 C    0.943
    22   1 H    0.976 --    14 C    0.960
    23   1 H    0.975 --    14 C    0.959
    24   1 H    0.977 --    14 C    0.957
    25   1 H    0.952 --     4 N    0.924
 ---------------------------------------------------------------------------

molecular dipole:
                 x           y           z       tot (Debye)
 q only:        1.528      -1.245      -0.015
   full:        1.425      -1.915      -0.037       6.067

           -------------------------------------------------
          | TOTAL ENERGY              -42.168321752632 Eh   |
          | GRADIENT NORM               0.003096051191 Eh/α |
          | HOMO-LUMO GAP               1.622650922150 eV   |
           -------------------------------------------------

 * finished run on 2024/06/05 at 19:58:42.935
