   * xtb version 6.6.1 (8d0f1dd) compiled by 'conda@1efc2f54142f' on 2023-08-01
          program call               : xtb struc.xyz --opt loose --input .xc1 --gfn2

   ID    Z sym.   atoms
    1    6 C      1, 3, 5-7, 10, 11, 14
    2    7 N      2, 4, 9, 13
    3    8 O      8, 12
    4    1 H      15-25
constraining bond 10 13 to    5.9200000 Å, actual value:    3.6911810 Å

          :  Hamiltonian                  GFN2-xTB          :
 * total energy  :   -24.5081183 Eh     change       -0.6650680E-10 Eh
 * total energy  :   -32.7480993 Eh     change       -0.8239981E+01 Eh
 * total energy  :   -38.0064300 Eh     change       -0.5258331E+01 Eh
 * total energy  :   -40.8096317 Eh     change       -0.2803202E+01 Eh
 * total energy  :   -41.6954660 Eh     change       -0.8858343E+00 Eh
 * total energy  :   -41.7806910 Eh     change       -0.8522493E-01 Eh
 * total energy  :   -41.8112412 Eh     change       -0.3055023E-01 Eh
 * total energy  :   -41.8891775 Eh     change       -0.7793633E-01 Eh
 * total energy  :   -41.9354965 Eh     change       -0.4631897E-01 Eh
 * total energy  :   -41.9699907 Eh     change       -0.3449422E-01 Eh
 * total energy  :   -42.1073658 Eh     change        0.1124480E-01 Eh
 * total energy  :   -42.1164672 Eh     change       -0.9101425E-02 Eh
 * total energy  :   -42.1016457 Eh     change        0.1482153E-01 Eh
 * total energy  :   -42.1191801 Eh     change       -0.1753440E-01 Eh
 * total energy  :   -42.1196388 Eh     change       -0.4586909E-03 Eh
 * total energy  :   -42.1198815 Eh     change       -0.2427080E-03 Eh
 * total energy  :   -42.1201363 Eh     change       -0.2548460E-03 Eh
 * total energy  :   -42.1202945 Eh     change       -0.1581923E-03 Eh
 * total energy  :   -42.1203399 Eh     change       -0.4544762E-04 Eh
   *** GEOMETRY OPTIMIZATION CONVERGED AFTER 72 ITERATIONS ***

 final structure:
================
25
 xtb: 6.6.1 (8d0f1dd)
C            3.01009034901552        1.14983471454267       -0.02142069260107
N            2.21750079926731       -0.04743442609510       -0.03146367335561
C            2.64630373958320       -1.29701095943142       -0.06947404126673
N            1.59500895636784       -2.14564251197635       -0.05321739922438
C            0.44783901147722       -1.39890017591886       -0.00459732054894
C            0.84845469323873       -0.06797409237771        0.01009958093722
C           -0.15618954686017        1.00857950686487        0.04512357636111
O            0.14231501324648        2.19027864270546        0.05060822494217
N           -1.40594173646281        0.53085018258128        0.06802593826855
C           -2.52540327115669        3.88578038460445        0.01826235124428
C           -1.84382169058950       -0.72048339019301        0.06368826259293
O           -2.99227707839407       -1.06726038247849        0.08782015533700
N           -0.82536396791110       -1.78518412317933        0.02351522515374
C           -1.24428136752006       -3.16578571216625        0.00788336758790
H            2.86189922597571        1.68188391525925        0.91955441288556
H            4.06173714542926        0.90374879266335       -0.14457224075731
H            2.68296385750425        1.81247820347637       -0.82358457639994
H            3.67335106418625       -1.60417214210955       -0.10731261042373
H           -1.53728911091390        3.45140916521107        0.04844199209926
H           -2.99756805428254        4.08739951546649       -0.92538357078229
H           -3.04931166730774        4.09533233492395        0.93215015845533
H           -0.89188807550126       -3.68789934019423        0.89898329966180
H           -0.88144459029019       -3.66929751963762       -0.88923543254281
H           -2.33465969028774       -3.16872704167934        0.00312808003530
H            1.65840750629155       -3.15356499926052       -0.07585144975790

          :  Hamiltonian                  GFN2-xTB          :
         :: total energy             -42.120339948707 Eh    ::
         :: gradient norm              0.003066979594 Eh/a0 ::
         :: HOMO-LUMO gap              1.079882037832 eV    ::
         :: SCC energy               -42.651760590176 Eh    ::
         :: -> dispersion             -0.021187051924 Eh    ::
         :: repulsion energy           0.531383977073 Eh    ::

    * Orbital Energies and Occupations

         #    Occupation            Energy/Eh            Energy/eV
      -------------------------------------------------------------
         1        2.0000           -0.9111348             -24.7932
       ...           ...                  ...                  ...
        25        1.9998           -0.6533570             -17.7787
        26        1.9998           -0.6471217             -17.6091
        27        1.9996           -0.6390447             -17.3893
        28        1.9986           -0.6180906             -16.8191
        29        1.9984           -0.6162949             -16.7702
        30        1.9982           -0.6145431             -16.7226
        31        1.9980           -0.6128688             -16.6770
        32        1.9978           -0.6110736             -16.6282
        33        1.9699           -0.5697585             -15.5039
        34        1.9100           -0.5519168             -15.0184
        35        1.9045           -0.5509373             -14.9918
        36        1.8643           -0.5450383             -14.8312
        37        1.7040           -0.5312596             -14.4563 (HOMO)
        38        0.6390           -0.4915746             -13.3764 (LUMO)
        39        0.0168           -0.4279912             -11.6462
        40        0.0014           -0.3881711             -10.5627
        41        0.0002           -0.3577767              -9.7356
        42        0.0000           -0.2616008              -7.1185
        43                         -0.1964015              -5.3444
        44                         -0.1740753              -4.7368
        45                         -0.1386658              -3.7733
        46                         -0.0854088              -2.3241
        47                         -0.0565140              -1.5378
        48                         -0.0350803              -0.9546
       ...                                ...                  ...
        67                          0.5722777              15.5725
      -------------------------------------------------------------
                  HL-Gap            0.0396849 Eh            1.0799 eV

     #   Z          covCN         q      C6AA      α(0)
     1   6 C        3.693    -0.086    22.339     6.763
     2   7 N        2.834     0.090    19.691     6.591
     3   6 C        3.060     0.057    26.654     8.466
     4   7 N        2.799    -0.065    22.501     7.045
     5   6 C        3.030     0.124    25.255     8.243
     6   6 C        3.134    -0.020    28.273     8.704
     7   6 C        2.763     0.296    21.980     7.678
     8   8 O        0.858    -0.370    21.088     6.157
     9   7 N        1.844    -0.251    27.386     7.756
    10   6 C        2.778    -0.069    29.693     8.925
    11   6 C        2.707     0.339    21.247     7.545
    12   8 O        0.860    -0.328    20.284     6.038
    13   7 N        2.735    -0.071    22.609     7.062
    14   6 C        3.693    -0.067    21.968     6.706
    15   1 H        0.924     0.123     1.593     1.974
    16   1 H        0.925     0.101     1.778     2.085
    17   1 H        0.924     0.126     1.565     1.956
    18   1 H        0.926     0.124     1.580     1.966
    19   1 H        0.926     0.160     1.328     1.802
    20   1 H        0.926     0.133     1.511     1.922
    21   1 H        0.926     0.134     1.506     1.919
    22   1 H        0.924     0.082     1.957     2.188
    23   1 H        0.924     0.080     1.976     2.198
    24   1 H        0.924     0.128     1.549     1.946
    25   1 H        0.860     0.229     0.968     1.541

Wiberg/Mayer (AO) data.
largest (>0.10) Wiberg bond orders for each atom

     #   Z sym  total        # sym  WBO       # sym  WBO       # sym  WBO
 ---------------------------------------------------------------------------
     1   6 C    3.919 --     2 N    0.989    16 H    0.975    17 H    0.954
                            15 H    0.952
     2   7 N    3.717 --     3 C    1.410     6 C    1.173     1 C    0.989
     3   6 C    3.887 --     2 N    1.410     4 N    1.281    18 H    0.951
     4   7 N    3.588 --     3 C    1.281     5 C    1.170    25 H    0.919
     5   6 C    3.951 --     6 C    1.334    13 N    1.274     4 N    1.170
     6   6 C    3.812 --     5 C    1.334     2 N    1.173     7 C    1.004
     7   6 C    3.948 --     8 O    1.612     9 N    1.249     6 C    1.004
     8   8 O    1.919 --     7 C    1.612     9 N    0.134
     9   7 N    2.868 --    11 C    1.274     7 C    1.249     8 O    0.134
                            12 O    0.113
    10   6 C    2.919 --    20 H    0.979    21 H    0.979    19 H    0.952
    11   6 C    3.946 --    12 O    1.688     9 N    1.274    13 N    0.904
    12   8 O    1.986 --    11 C    1.688     9 N    0.113
    13   7 N    3.463 --     5 C    1.274    14 C    0.987    11 C    0.904
    14   6 C    3.916 --    13 N    0.987    23 H    0.964    22 H    0.963
                            24 H    0.959
    15   1 H    0.983 --     1 C    0.952
    16   1 H    0.989 --     1 C    0.975
    17   1 H    0.983 --     1 C    0.954
    18   1 H    0.983 --     3 C    0.951
    19   1 H    0.972 --    10 C    0.952
    20   1 H    0.980 --    10 C    0.979
    21   1 H    0.980 --    10 C    0.979
    22   1 H    0.981 --    14 C    0.963
    23   1 H    0.982 --    14 C    0.964
    24   1 H    0.981 --    14 C    0.959
    25   1 H    0.947 --     4 N    0.919
 ---------------------------------------------------------------------------

molecular dipole:
                 x           y           z       tot (Debye)
 q only:        2.624      -0.823      -0.113
   full:        3.108      -1.458      -0.133       8.732

           -------------------------------------------------
          | TOTAL ENERGY              -42.120339948707 Eh   |
          | GRADIENT NORM               0.003066979594 Eh/α |
          | HOMO-LUMO GAP               1.079882037832 eV   |
           -------------------------------------------------

 * finished run on 2024/06/05 at 19:59:19.280
