   * xtb version 6.6.1 (8d0f1dd) compiled by 'conda@1efc2f54142f' on 2023-08-01
          program call               : xtb xtbopt.xyz --opt crude --input .xc2 --gfn2

   ID    Z sym.   atoms
    1    6 C      1, 3, 5-7, 10, 11, 14
    2    7 N      2, 4, 9, 13
    3    8 O      8, 12
    4    1 H      15-25

          :  Hamiltonian                  GFN2-xTB          :
 * total energy  :   -42.1203403 Eh     change        0.1293188E-11 Eh
 * total energy  :   -42.1203129 Eh     change        0.2733319E-04 Eh
 * total energy  :   -42.1203661 Eh     change       -0.5317378E-04 Eh
   *** GEOMETRY OPTIMIZATION CONVERGED AFTER 3 ITERATIONS ***

 final structure:
================
25
 xtb: 6.6.1 (8d0f1dd)
C            3.01188123011322        1.14925267866659       -0.02169411849919
N            2.21815599363534       -0.04715757534617       -0.03045584334493
C            2.64609308692273       -1.29734534862281       -0.06631761378634
N            1.59383865511460       -2.14473034068184       -0.05218101227575
C            0.44753992166502       -1.39624772388906       -0.00471494568806
C            0.84927150087038       -0.06589886804391        0.00978943958862
C           -0.15500331626773        1.01205905293501        0.04440128358199
O            0.14631912583691        2.19294853989322        0.04353996874125
N           -1.40566432616589        0.53627216336671        0.06589975879226
C           -2.52724170936225        3.87111921200017        0.02026686142043
C           -1.84324993998629       -0.71538268099652        0.06262741438543
O           -2.99312360031578       -1.05998872060417        0.08536007028022
N           -0.82572366666456       -1.78205054585899        0.02197927335181
C           -1.24467917254019       -3.16232348882898        0.00727173363353
H            2.86507065561035        1.68242545459169        0.91911035899733
H            4.06344264477126        0.90239226232869       -0.14587218093698
H            2.68424865859780        1.81159225769735       -0.82394325274585
H            3.67308795441008       -1.60491505048619       -0.10299156862630
H           -1.54503963114212        3.42919623226891        0.04730133983453
H           -2.99721338777454        4.08521231224105       -0.91972577001957
H           -3.04641459099791        4.09053634725019        0.93287757490147
H           -0.88996764463513       -3.68438602766798        0.89766904425498
H           -0.88496146845007       -3.66753491274332       -0.89065747462713
H           -2.33539869206776       -3.16394108307351        0.00591062648592
H            1.65516323292813       -3.15286560479476       -0.07427934979820

          :  Hamiltonian                  GFN2-xTB          :
         :: total energy             -42.120366120795 Eh    ::
         :: gradient norm              0.001285322015 Eh/a0 ::
         :: HOMO-LUMO gap              1.081002121696 eV    ::
         :: SCC energy               -42.652063174195 Eh    ::
         :: -> dispersion             -0.021199796118 Eh    ::
         :: repulsion energy           0.531660794512 Eh    ::

    * Orbital Energies and Occupations

         #    Occupation            Energy/Eh            Energy/eV
      -------------------------------------------------------------
         1        2.0000           -0.9111817             -24.7945
       ...           ...                  ...                  ...
        25        1.9998           -0.6534002             -17.7799
        26        1.9998           -0.6471570             -17.6100
        27        1.9996           -0.6390606             -17.3897
        28        1.9985           -0.6180870             -16.8190
        29        1.9984           -0.6163576             -16.7719
        30        1.9982           -0.6146448             -16.7253
        31        1.9980           -0.6129295             -16.6787
        32        1.9978           -0.6115068             -16.6399
        33        1.9699           -0.5699066             -15.5079
        34        1.9099           -0.5520419             -15.0218
        35        1.9048           -0.5511141             -14.9966
        36        1.8637           -0.5450861             -14.8325
        37        1.7046           -0.5314293             -14.4609 (HOMO)
        38        0.6389           -0.4917032             -13.3799 (LUMO)
        39        0.0167           -0.4280532             -11.6479
        40        0.0014           -0.3882240             -10.5641
        41        0.0002           -0.3580800              -9.7439
        42        0.0000           -0.2619422              -7.1278
        43                         -0.1965538              -5.3485
        44                         -0.1742844              -4.7425
        45                         -0.1391767              -3.7872
        46                         -0.0854131              -2.3242
        47                         -0.0568408              -1.5467
        48                         -0.0351078              -0.9553
       ...                                ...                  ...
        67                          0.5699881              15.5102
      -------------------------------------------------------------
                  HL-Gap            0.0397261 Eh            1.0810 eV

     #   Z          covCN         q      C6AA      α(0)
     1   6 C        3.693    -0.086    22.339     6.763
     2   7 N        2.834     0.090    19.690     6.590
     3   6 C        3.059     0.057    26.654     8.467
     4   7 N        2.799    -0.065    22.502     7.045
     5   6 C        3.031     0.124    25.255     8.243
     6   6 C        3.133    -0.020    28.277     8.705
     7   6 C        2.763     0.296    21.980     7.678
     8   8 O        0.858    -0.370    21.084     6.156
     9   7 N        1.843    -0.251    27.387     7.756
    10   6 C        2.778    -0.069    29.695     8.925
    11   6 C        2.707     0.338    21.252     7.546
    12   8 O        0.860    -0.328    20.284     6.038
    13   7 N        2.735    -0.070    22.607     7.062
    14   6 C        3.693    -0.067    21.967     6.706
    15   1 H        0.924     0.122     1.593     1.974
    16   1 H        0.925     0.101     1.778     2.085
    17   1 H        0.924     0.126     1.564     1.956
    18   1 H        0.926     0.124     1.580     1.965
    19   1 H        0.926     0.160     1.326     1.801
    20   1 H        0.926     0.133     1.512     1.923
    21   1 H        0.926     0.134     1.507     1.919
    22   1 H        0.924     0.082     1.959     2.189
    23   1 H        0.924     0.080     1.974     2.197
    24   1 H        0.924     0.128     1.549     1.947
    25   1 H        0.860     0.229     0.968     1.541

Wiberg/Mayer (AO) data.
largest (>0.10) Wiberg bond orders for each atom

     #   Z sym  total        # sym  WBO       # sym  WBO       # sym  WBO
 ---------------------------------------------------------------------------
     1   6 C    3.919 --     2 N    0.989    16 H    0.975    17 H    0.954
                            15 H    0.952
     2   7 N    3.717 --     3 C    1.409     6 C    1.173     1 C    0.989
     3   6 C    3.887 --     2 N    1.409     4 N    1.281    18 H    0.951
     4   7 N    3.588 --     3 C    1.281     5 C    1.170    25 H    0.919
     5   6 C    3.951 --     6 C    1.335    13 N    1.274     4 N    1.170
     6   6 C    3.812 --     5 C    1.335     2 N    1.173     7 C    1.003
     7   6 C    3.948 --     8 O    1.612     9 N    1.249     6 C    1.003
     8   8 O    1.920 --     7 C    1.612     9 N    0.134
     9   7 N    2.869 --    11 C    1.274     7 C    1.249     8 O    0.134
                            12 O    0.113
    10   6 C    2.919 --    20 H    0.979    21 H    0.979    19 H    0.952
    11   6 C    3.946 --    12 O    1.688     9 N    1.274    13 N    0.904
    12   8 O    1.985 --    11 C    1.688     9 N    0.113
    13   7 N    3.463 --     5 C    1.274    14 C    0.987    11 C    0.904
    14   6 C    3.916 --    13 N    0.987    23 H    0.964    22 H    0.963
                            24 H    0.959
    15   1 H    0.983 --     1 C    0.952
    16   1 H    0.989 --     1 C    0.975
    17   1 H    0.983 --     1 C    0.954
    18   1 H    0.983 --     3 C    0.951
    19   1 H    0.972 --    10 C    0.952
    20   1 H    0.980 --    10 C    0.979
    21   1 H    0.980 --    10 C    0.979
    22   1 H    0.981 --    14 C    0.963
    23   1 H    0.982 --    14 C    0.964
    24   1 H    0.981 --    14 C    0.959
    25   1 H    0.947 --     4 N    0.919
 ---------------------------------------------------------------------------

molecular dipole:
                 x           y           z       tot (Debye)
 q only:        2.623      -0.831      -0.104
   full:        3.106      -1.467      -0.121       8.736

           -------------------------------------------------
          | TOTAL ENERGY              -42.120366120795 Eh   |
          | GRADIENT NORM               0.001285322015 Eh/α |
          | HOMO-LUMO GAP               1.081002121696 eV   |
           -------------------------------------------------

 * finished run on 2024/06/05 at 19:59:19.476
