   * xtb version 6.6.1 (8d0f1dd) compiled by 'conda@1efc2f54142f' on 2023-08-01
          program call               : xtb xtbopt.xyz --opt crude --input .xc2 --gfn2

   ID    Z sym.   atoms
    1    6 C      1, 3, 5-7, 10, 11, 14
    2    7 N      2, 4, 9, 13
    3    8 O      8, 12
    4    1 H      15-25
########################################################################
[WARNING] Please study the warnings concerning your input carefully
-1- readin_getIntValue: could not parse ''
########################################################################

          :  Hamiltonian                  GFN2-xTB          :
 * total energy  :   -40.3981786 Eh     change       -0.3126388E-12 Eh
 * total energy  :   -42.1194525 Eh     change       -0.1721274E+01 Eh
 * total energy  :   -42.1318169 Eh     change       -0.1236437E-01 Eh
 * total energy  :   -42.1362316 Eh     change       -0.4414711E-02 Eh
 * total energy  :   -42.1370683 Eh     change       -0.8367684E-03 Eh
 * total energy  :   -42.1379285 Eh     change       -0.8601108E-03 Eh
 * total energy  :   -42.1386646 Eh     change       -0.7361228E-03 Eh
 * total energy  :   -42.1392332 Eh     change       -0.5686064E-03 Eh
 * total energy  :   -42.1396003 Eh     change       -0.3671119E-03 Eh
   *** GEOMETRY OPTIMIZATION CONVERGED AFTER 9 ITERATIONS ***

 final structure:
================
25
 xtb: 6.6.1 (8d0f1dd)
C            3.17568438094766        1.14870717069693        0.51831093550336
N            2.29370030400742        0.08796194536428        0.13897842168249
C            2.62446902622469       -1.24108760112358        0.28511936698613
N            1.60335214855910       -1.95536428596885       -0.11123138204179
C            0.50545113339485       -1.13732243947342       -0.61891813753257
C            1.05564322771584        0.21822994009978       -0.34915851513449
C            0.19406284640038        1.38412783014747       -0.30509094249633
O            0.58360260560587        2.53205887151818       -0.29687712904447
N           -1.14768440054440        1.03971966189985       -0.22695114092310
C           -2.12484910143415        2.10993687608204       -0.20631256115007
C           -1.64406983739402       -0.23159806643307        0.10044768549656
O           -2.79366119103708       -0.36875598331191        0.42698396712945
N           -0.76046664965030       -1.28849210943534        0.05483351702408
C           -1.27292708575391       -2.62712813319554        0.26066759411360
H            3.47879380492074        1.02228641306012        1.55902079174034
H            4.07989042534216        1.10072233944867       -0.09389224499328
H            2.68694713697335        2.11183111956944        0.37598719735437
H            0.36807329328021       -1.36114137801733       -1.69258570997168
H           -1.61405555536094        3.04861482567079       -0.40982247035395
H           -2.88829086173709        1.91710492596883       -0.96174396977404
H           -2.62157128811553        2.15462841397135        0.76505621835046
H           -0.72190211673402       -3.11834920552346        1.06408624645178
H           -1.19515881788087       -3.21796362472798       -0.65424194096487
H           -2.32039500586253       -2.54625724286316        0.54818084678709
H            1.61579309223083       -2.96423172182693       -0.13967502633678

          :  Hamiltonian                  GFN2-xTB          :
         :: total energy             -42.139600292127 Eh    ::
         :: gradient norm              0.009292457088 Eh/a0 ::
         :: HOMO-LUMO gap              1.145202467837 eV    ::
         :: SCC energy               -42.629283321140 Eh    ::
         :: -> dispersion             -0.022787720545 Eh    ::
         :: repulsion energy           0.489503461157 Eh    ::

    * Orbital Energies and Occupations

         #    Occupation            Energy/Eh            Energy/eV
      -------------------------------------------------------------
         1        2.0000           -0.9068688             -24.6772
       ...           ...                  ...                  ...
        25        1.9998           -0.6753463             -18.3771
        26        1.9996           -0.6668913             -18.1470
        27        1.9992           -0.6564391             -17.8626
        28        1.9985           -0.6466767             -17.5970
        29        1.9975           -0.6383159             -17.3695
        30        1.9966           -0.6332674             -17.2321
        31        1.9931           -0.6220581             -16.9271
        32        1.9911           -0.6179159             -16.8143
        33        1.9648           -0.5960036             -16.2181
        34        1.9388           -0.5870355             -15.9740
        35        1.9287           -0.5845384             -15.9061
        36        1.8782           -0.5756352             -15.6638
        37        1.7166           -0.5608328             -15.2610 (HOMO)
        38        0.5960           -0.5187474             -14.1158 (LUMO)
        39        0.0016           -0.4196827             -11.4201
        40        0.0002           -0.3875905             -10.5469
        41        0.0000           -0.3445923              -9.3768
        42                         -0.2131190              -5.7993
        43                         -0.1975858              -5.3766
        44                         -0.1583173              -4.3080
        45                         -0.1535186              -4.1775
        46                         -0.1241828              -3.3792
        47                         -0.0732740              -1.9939
        48                         -0.0381694              -1.0386
       ...                                ...                  ...
        67                          0.5093347              13.8597
      -------------------------------------------------------------
                  HL-Gap            0.0420854 Eh            1.1452 eV

     #   Z          covCN         q      C6AA      α(0)
     1   6 C        3.694    -0.090    22.405     6.772
     2   7 N        2.813     0.099    19.532     6.564
     3   6 C        1.983    -0.037    32.057     9.143
     4   7 N        2.779    -0.066    22.518     7.048
     5   6 C        3.808     0.098    18.958     6.198
     6   6 C        3.040     0.020    27.520     8.604
     7   6 C        2.763     0.269    22.458     7.761
     8   8 O        0.858    -0.334    20.410     6.057
     9   7 N        2.745    -0.079    22.769     7.087
    10   6 C        3.706    -0.060    21.815     6.677
    11   6 C        2.715     0.320    21.559     7.601
    12   8 O        0.860    -0.340    20.517     6.073
    13   7 N        2.738    -0.097    23.141     7.145
    14   6 C        3.697    -0.068    21.973     6.705
    15   1 H        0.924     0.124     1.579     1.965
    16   1 H        0.924     0.128     1.549     1.946
    17   1 H        0.925     0.126     1.563     1.955
    18   1 H        0.922     0.106     1.731     2.058
    19   1 H        0.925     0.120     1.617     1.988
    20   1 H        0.924     0.114     1.664     2.017
    21   1 H        0.924     0.116     1.645     2.005
    22   1 H        0.924     0.092     1.857     2.131
    23   1 H        0.924     0.084     1.937     2.176
    24   1 H        0.925     0.127     1.557     1.951
    25   1 H        0.860     0.228     0.976     1.547

Wiberg/Mayer (AO) data.
largest (>0.10) Wiberg bond orders for each atom

     #   Z sym  total        # sym  WBO       # sym  WBO       # sym  WBO
 ---------------------------------------------------------------------------
     1   6 C    3.901 --     2 N    1.004    17 H    0.959    15 H    0.943
                            16 H    0.935
     2   7 N    3.607 --     6 C    1.344     3 C    1.159     1 C    1.004
     3   6 C    2.797 --     4 N    1.519     2 N    1.159
     4   7 N    3.504 --     3 C    1.519     5 C    0.965    25 H    0.920
     5   6 C    3.947 --     6 C    1.013    13 N    0.973     4 N    0.965
                            18 H    0.896
     6   6 C    3.633 --     2 N    1.344     7 C    1.063     5 C    1.013
     7   6 C    3.928 --     8 O    1.666     9 N    1.112     6 C    1.063
     8   8 O    1.953 --     7 C    1.666     9 N    0.139
     9   7 N    3.459 --     7 C    1.112    11 C    1.058    10 C    0.982
                             8 O    0.139
    10   6 C    3.874 --     9 N    0.982    19 H    0.962    20 H    0.943
                            21 H    0.942
    11   6 C    3.956 --    12 O    1.683    13 N    1.135     9 N    1.058
    12   8 O    2.001 --    11 C    1.683    13 N    0.140
    13   7 N    3.327 --    11 C    1.135    14 C    0.984     5 C    0.973
                            12 O    0.140
    14   6 C    3.904 --    13 N    0.984    23 H    0.960    22 H    0.959
                            24 H    0.959
    15   1 H    0.972 --     1 C    0.943
    16   1 H    0.968 --     1 C    0.935
    17   1 H    0.981 --     1 C    0.959
    18   1 H    0.943 --     5 C    0.896
    19   1 H    0.980 --    10 C    0.962
    20   1 H    0.960 --    10 C    0.943
    21   1 H    0.959 --    10 C    0.942
    22   1 H    0.973 --    14 C    0.959
    23   1 H    0.975 --    14 C    0.960
    24   1 H    0.979 --    14 C    0.959
    25   1 H    0.947 --     4 N    0.920
 ---------------------------------------------------------------------------

molecular dipole:
                 x           y           z       tot (Debye)
 q only:        1.663      -1.301      -0.248
   full:        1.445      -1.537      -0.575       5.558

           -------------------------------------------------
          | TOTAL ENERGY              -42.139600292127 Eh   |
          | GRADIENT NORM               0.009292457088 Eh/α |
          | HOMO-LUMO GAP               1.145202467837 eV   |
           -------------------------------------------------

 * finished run on 2024/06/05 at 19:59:25.631
