   * xtb version 6.6.1 (8d0f1dd) compiled by 'conda@1efc2f54142f' on 2023-08-01
          program call               : xtb struc.xyz --opt loose --input .xc1 --gfn2

   ID    Z sym.   atoms
    1    6 C      1, 3, 5-7, 10, 11, 14
    2    7 N      2, 4, 9, 13
    3    8 O      8, 12
    4    1 H      15-25
constraining bond 7 15 to    4.7133300 Å, actual value:    3.7773936 Å

          :  Hamiltonian                  GFN2-xTB          :
 * total energy  :   -43.8119434 Eh     change       -0.6650680E-10 Eh
 * total energy  :   -47.1229390 Eh     change       -0.3310996E+01 Eh
 * total energy  :   -52.2968251 Eh     change       -0.5173886E+01 Eh
 * total energy  :   -59.4481380 Eh     change       -0.7151313E+01 Eh
 * total energy  :   -68.5386091 Eh     change       -0.9090471E+01 Eh
 * total energy  :   -55.5816504 Eh     change        0.1295696E+02 Eh
 * total energy  :   -72.0099688 Eh     change       -0.1642832E+02 Eh
 * total energy  :   -72.2068903 Eh     change       -0.1969215E+00 Eh
 * total energy  :   -72.9348119 Eh     change       -0.7279216E+00 Eh
 * total energy  :   -73.1334883 Eh     change       -0.1986764E+00 Eh
 * total energy  :   -73.3058089 Eh     change       -0.4269106E-04 Eh
 * total energy  :   -73.3058904 Eh     change       -0.8143682E-04 Eh
 * total energy  :   -73.3059414 Eh     change       -0.5098944E-04 Eh
 * total energy  :   -73.3059929 Eh     change       -0.5150447E-04 Eh
 * total energy  :   -73.3060662 Eh     change       -0.7330725E-04 Eh
 * total energy  :   -73.3061136 Eh     change       -0.4746437E-04 Eh
 * total energy  :   -73.3061677 Eh     change       -0.5410022E-04 Eh
 * total energy  :   -73.3061923 Eh     change       -0.2454231E-04 Eh
 * total energy  :   -73.3062355 Eh     change       -0.4320940E-04 Eh
   *** GEOMETRY OPTIMIZATION CONVERGED AFTER 54 ITERATIONS ***

 final structure:
================
25
 xtb: 6.6.1 (8d0f1dd)
C            3.34353655171387        0.96216639910620       -0.10217227879446
N            2.42597570292634       -0.00188931929661       -0.06421066131903
C            2.62487732712064       -1.32858892541197       -0.27283077483157
N            1.44256775763192       -1.97656600648223       -0.19782082065694
C            0.46141077871367       -1.05454021862983        0.06205624600823
C            1.07419520654400        0.16970125605307        0.17675929639057
C            0.32495729683441        1.51615694037091        0.44351374661695
O            0.68239778570012        2.37295476966088       -0.51395251922119
N           -1.19657112600852        1.07075894069943        0.17266524437764
C           -2.06378572391100        2.21016381932204        0.04787862284148
C           -1.75228418900327       -0.16180103878891        0.12331764996626
O           -2.93949401405183       -0.35591864529038        0.04262307915811
N           -0.86581078424264       -1.27355982701524        0.14863214706142
C           -1.42291323433745       -2.60549155929072        0.06624013522570
H            0.32604343882302        1.63370377633006        0.80860712322840
H            4.36511653857140        0.70879400277721       -0.31393082425738
H            3.02813446312342        1.98475102919391        0.00710319695205
H            3.57277653167776       -1.78845547526350       -0.46528499454025
H           -1.50985270732012        3.00451459775748       -0.45942274991055
H           -2.95325539001311        1.93992098525789       -0.52133989893016
H           -2.37650330300260        2.56724662584319        1.03529023626139
H           -1.02869387938295       -3.23042603081231        0.86806731127547
H           -1.21162102070899       -3.06078591324261       -0.90340223217431
H           -2.50321908431432       -2.51540348813882        0.17736161498004
H            1.31244659101617       -2.96916815311297       -0.33457627780842

          :  Hamiltonian                  GFN2-xTB          :
         :: total energy             -73.306235501814 Eh    ::
         :: gradient norm              0.002990179159 Eh/a0 ::
         :: HOMO-LUMO gap              0.437571718737 eV    ::
         :: SCC energy               -42.623308194631 Eh    ::
         :: -> dispersion             -0.022801973413 Eh    ::
         :: repulsion energy           2.790279603859 Eh    ::

    * Orbital Energies and Occupations

         #    Occupation            Energy/Eh            Energy/eV
      -------------------------------------------------------------
         1        2.0000           -0.9166472             -24.9432
       ...           ...                  ...                  ...
        25        1.9999           -0.6720500             -18.2874
        26        1.9998           -0.6634672             -18.0539
        27        1.9998           -0.6592778             -17.9399
        28        1.9994           -0.6445246             -17.5384
        29        1.9989           -0.6354063             -17.2903
        30        1.9981           -0.6271985             -17.0669
        31        1.9973           -0.6213943             -16.9090
        32        1.9915           -0.6031248             -16.4119
        33        1.9674           -0.5816636             -15.8279
        34        1.9068           -0.5645595             -15.3624
        35        1.8260           -0.5539844             -15.0747
        36        1.7267           -0.5459545             -14.8562
        37        1.5191           -0.5349753             -14.5574 (HOMO)
        38        1.0672           -0.5188948             -14.1198 (LUMO)
        39        0.0021           -0.4078342             -11.0977
        40        0.0004           -0.3809119             -10.3651
        41        0.0000           -0.3340795              -9.0908
        42        0.0000           -0.2697792              -7.3411
        43                         -0.2044942              -5.5646
        44                         -0.1786209              -4.8605
        45                         -0.1727468              -4.7007
        46                         -0.0948127              -2.5800
        47                         -0.0792200              -2.1557
        48                         -0.0451959              -1.2298
       ...                                ...                  ...
        67                         13.7343462             373.7306
      -------------------------------------------------------------
                  HL-Gap            0.0160805 Eh            0.4376 eV

     #   Z          covCN         q      C6AA      α(0)
     1   6 C        2.790    -0.054    29.312     8.869
     2   7 N        2.821     0.131    19.006     6.475
     3   6 C        3.034     0.035    27.194     8.554
     4   7 N        2.787    -0.054    22.289     7.012
     5   6 C        3.019     0.115    25.436     8.273
     6   6 C        3.096    -0.020    28.382     8.731
     7   6 C        3.640     0.149    18.512     6.188
     8   8 O        0.862    -0.433    22.341     6.337
     9   7 N        2.710    -0.121    23.633     7.220
    10   6 C        3.701    -0.056    21.746     6.668
    11   6 C        2.718     0.321    21.537     7.597
    12   8 O        0.860    -0.353    20.754     6.108
    13   7 N        2.738    -0.056    22.319     7.017
    14   6 C        3.697    -0.072    22.059     6.718
    15   1 H        0.944     0.192     1.138     1.667
    16   1 H        0.926     0.118     1.627     1.995
    17   1 H        0.926     0.145     1.422     1.865
    18   1 H        0.926     0.129     1.546     1.944
    19   1 H        0.924     0.124     1.583     1.968
    20   1 H        0.925     0.116     1.648     2.008
    21   1 H        0.924     0.106     1.729     2.056
    22   1 H        0.924     0.086     1.916     2.165
    23   1 H        0.924     0.086     1.917     2.165
    24   1 H        0.925     0.130     1.531     1.935
    25   1 H        0.860     0.233     0.951     1.528

Wiberg/Mayer (AO) data.
largest (>0.10) Wiberg bond orders for each atom

     #   Z sym  total        # sym  WBO       # sym  WBO       # sym  WBO
 ---------------------------------------------------------------------------
     1   6 C    3.332 --     2 N    1.316    16 H    0.965    17 H    0.955
     2   7 N    3.763 --     1 C    1.316     3 C    1.227     6 C    1.121
     3   6 C    3.645 --     4 N    1.287     2 N    1.227    18 H    0.952
     4   7 N    3.518 --     3 C    1.287     5 C    1.157    25 H    0.916
     5   6 C    3.926 --     6 C    1.412    13 N    1.196     4 N    1.157
     6   6 C    3.711 --     5 C    1.412     2 N    1.121     7 C    0.899
     7   6 C    3.875 --     8 O    1.228    15 H    0.902     6 C    0.899
                             9 N    0.776
     8   8 O    1.380 --     7 C    1.228
     9   7 N    3.275 --    11 C    1.213    10 C    1.013     7 C    0.776
                            12 O    0.139
    10   6 C    3.868 --     9 N    1.013    20 H    0.949    19 H    0.942
                            21 H    0.925
    11   6 C    3.949 --    12 O    1.651     9 N    1.213    13 N    1.003
    12   8 O    1.963 --    11 C    1.651     9 N    0.139
    13   7 N    3.439 --     5 C    1.196    11 C    1.003    14 C    0.983
    14   6 C    3.913 --    13 N    0.983    22 H    0.966    23 H    0.961
                            24 H    0.961
    15   1 H    0.929 --     7 C    0.902
    16   1 H    0.985 --     1 C    0.965
    17   1 H    0.978 --     1 C    0.955
    18   1 H    0.982 --     3 C    0.952
    19   1 H    0.962 --    10 C    0.942
    20   1 H    0.966 --    10 C    0.949
    21   1 H    0.939 --    10 C    0.925
    22   1 H    0.980 --    14 C    0.966
    23   1 H    0.977 --    14 C    0.961
    24   1 H    0.981 --    14 C    0.961
    25   1 H    0.945 --     4 N    0.916
 ---------------------------------------------------------------------------

molecular dipole:
                 x           y           z       tot (Debye)
 q only:        2.468      -2.030       0.515
   full:        2.698      -2.408       0.543       9.296

           -------------------------------------------------
          | TOTAL ENERGY              -73.306235501814 Eh   |
          | GRADIENT NORM               0.002990179159 Eh/α |
          | HOMO-LUMO GAP               0.437571718737 eV   |
           -------------------------------------------------

 * finished run on 2024/06/05 at 19:59:13.413
