   * xtb version 6.6.1 (8d0f1dd) compiled by 'conda@1efc2f54142f' on 2023-08-01
          program call               : xtb xtbopt.xyz --opt crude --input .xc2 --gfn2

   ID    Z sym.   atoms
    1    6 C      1, 3, 5-7, 10, 11, 14
    2    7 N      2, 4, 9, 13
    3    8 O      8, 12
    4    1 H      15-25
########################################################################
[WARNING] Please study the warnings concerning your input carefully
-1- readin_getIntValue: could not parse ''
########################################################################

          :  Hamiltonian                  GFN2-xTB          :
 * total energy  :   -42.1755218 Eh     change       -0.1108447E-11 Eh
   *** GEOMETRY OPTIMIZATION CONVERGED AFTER 1 ITERATIONS ***

 final structure:
================
25
 xtb: 6.6.1 (8d0f1dd)
C            3.23465726574621        1.20503409097683       -0.01414881116095
N            2.33027771326552        0.08846083813464       -0.05461446495022
C            2.66015087212512       -1.21019859730976       -0.07637441545218
N            1.53581104782658       -1.96792976065294       -0.06312155764526
C            0.46073173444611       -1.12240299580870       -0.03037212068300
C            0.95695473861053        0.17766563789211       -0.02549539500927
C            0.10852399657005        1.33422777397532        0.00441333967065
O            0.44093664342371        2.50133152099111       -0.00258908179997
N           -1.25137236591547        0.94330826327874        0.03917976957000
C           -2.24819669996969        2.00071867859130        0.06238565137285
C           -1.69581327820165       -0.33086182147587        0.03843606418077
O           -3.01110907466099       -0.51017852332710        0.04534479797251
N           -0.87552410584725       -1.42531564315036        0.01776654316466
C           -1.35167359104418       -2.70051314784148        0.00145196169744
H            3.73765255610785        1.24966477540950        0.95332562043341
H            3.98583430955490        1.11357254300088       -0.79746173208295
H            2.66189253359467        2.12069763086341       -0.15576413631291
H            3.65737726583165       -1.59738955419576       -0.10350483096559
H           -1.71205674602407        2.94765843386807        0.05644370236025
H           -2.89115250388041        1.92946934910353       -0.81358646111524
H           -2.86002170077054        1.92040492910265        0.95898207347815
H           -2.33392389456397       -2.93277217632895        0.35093574892732
H           -0.66763742773688       -3.49730467277899       -0.16388812668854
H           -3.22534624110703       -1.44307088702226       -0.13248778812059
H            1.51345846671901       -2.97603814369597       -0.06408473294130

          :  Hamiltonian                  GFN2-xTB          :
         :: total energy             -42.175521779439 Eh    ::
         :: gradient norm              0.005155549430 Eh/a0 ::
         :: HOMO-LUMO gap              1.404651297864 eV    ::
         :: SCC energy               -42.693482448996 Eh    ::
         :: -> dispersion             -0.023017559277 Eh    ::
         :: repulsion energy           0.517856200092 Eh    ::

    * Orbital Energies and Occupations

         #    Occupation            Energy/Eh            Energy/eV
      -------------------------------------------------------------
         1        2.0000           -0.9005342             -24.5048
       ...           ...                  ...                  ...
        25        2.0000           -0.6681823             -18.1822
        26        2.0000           -0.6627733             -18.0350
        27        2.0000           -0.6584797             -17.9181
        28        2.0000           -0.6429290             -17.4950
        29        2.0000           -0.6346619             -17.2700
        30        2.0000           -0.6216005             -16.9146
        31        2.0000           -0.6186527             -16.8344
        32        1.9999           -0.6018504             -16.3772
        33        1.9999           -0.5996910             -16.3184
        34        1.9995           -0.5794699             -15.7682
        35        1.9989           -0.5675334             -15.4434
        36        1.9969           -0.5507639             -14.9870
        37        1.5882           -0.4697749             -12.7832 (HOMO)
        38        0.2579           -0.4181549             -11.3786 (LUMO)
        39        0.1436           -0.4078785             -11.0989
        40        0.0153           -0.3714144             -10.1067
        41        0.0000           -0.2797184              -7.6115
        42        0.0000           -0.1941664              -5.2835
        43        0.0000           -0.1855237              -5.0484
        44                         -0.1413028              -3.8450
        45                         -0.1265004              -3.4423
        46                         -0.0924352              -2.5153
        47                         -0.0527178              -1.4345
        48                         -0.0312361              -0.8500
       ...                                ...                  ...
        67                          0.5397814              14.6882
      -------------------------------------------------------------
                  HL-Gap            0.0516200 Eh            1.4047 eV

     #   Z          covCN         q      C6AA      α(0)
     1   6 C        3.691    -0.092    22.445     6.780
     2   7 N        2.825     0.067    20.077     6.655
     3   6 C        3.036     0.039    27.098     8.538
     4   7 N        2.781    -0.061    22.412     7.031
     5   6 C        3.074     0.081    26.112     8.378
     6   6 C        3.098    -0.018    28.345     8.725
     7   6 C        2.766     0.248    22.845     7.828
     8   8 O        0.857    -0.390    21.475     6.213
     9   7 N        2.746    -0.047    22.154     6.991
    10   6 C        3.707    -0.071    22.008     6.706
    11   6 C        2.773     0.226    23.246     7.896
    12   8 O        1.660    -0.330    19.539     5.967
    13   7 N        2.736     0.021    20.879     6.786
    14   6 C        2.797    -0.147    31.760     9.232
    15   1 H        0.924     0.102     1.767     2.079
    16   1 H        0.925     0.100     1.788     2.091
    17   1 H        0.925     0.133     1.513     1.923
    18   1 H        0.927     0.117     1.638     2.001
    19   1 H        0.925     0.124     1.582     1.967
    20   1 H        0.925     0.097     1.817     2.108
    21   1 H        0.925     0.098     1.807     2.102
    22   1 H        0.927     0.064     2.148     2.292
    23   1 H        0.927     0.060     2.203     2.321
    24   1 H        0.804     0.356     0.575     1.191
    25   1 H        0.860     0.224     0.993     1.561

Wiberg/Mayer (AO) data.
largest (>0.10) Wiberg bond orders for each atom

     #   Z sym  total        # sym  WBO       # sym  WBO       # sym  WBO
 ---------------------------------------------------------------------------
     1   6 C    3.921 --     2 N    0.988    16 H    0.965    17 H    0.961
                            15 H    0.958
     2   7 N    3.601 --     3 C    1.330     6 C    1.153     1 C    0.988
     3   6 C    3.732 --     2 N    1.330     4 N    1.257    18 H    0.956
     4   7 N    3.526 --     3 C    1.257     5 C    1.178    25 H    0.920
     5   6 C    3.856 --     6 C    1.335     4 N    1.178    13 N    1.112
     6   6 C    3.879 --     5 C    1.335     2 N    1.153     7 C    1.107
     7   6 C    3.895 --     8 O    1.638     6 C    1.107     9 N    1.036
     8   8 O    1.942 --     7 C    1.638     9 N    0.135
     9   7 N    3.544 --    11 C    1.245     7 C    1.036    10 C    0.970
                             8 O    0.135
    10   6 C    3.916 --     9 N    0.970    21 H    0.966    20 H    0.965
                            19 H    0.965
    11   6 C    3.776 --     9 N    1.245    13 N    1.155    12 O    1.146
                            14 C    0.111
    12   8 O    2.163 --    11 C    1.146    24 H    0.826
    13   7 N    3.651 --    14 C    1.186    11 C    1.155     5 C    1.112
    14   6 C    3.397 --    13 N    1.186    23 H    0.974    22 H    0.960
                            11 C    0.111
    15   1 H    0.983 --     1 C    0.958
    16   1 H    0.985 --     1 C    0.965
    17   1 H    0.982 --     1 C    0.961
    18   1 H    0.985 --     3 C    0.956
    19   1 H    0.984 --    10 C    0.965
    20   1 H    0.986 --    10 C    0.965
    21   1 H    0.986 --    10 C    0.966
    22   1 H    0.994 --    14 C    0.960
    23   1 H    0.996 --    14 C    0.974
    24   1 H    0.871 --    12 O    0.826
    25   1 H    0.949 --     4 N    0.920
 ---------------------------------------------------------------------------

molecular dipole:
                 x           y           z       tot (Debye)
 q only:        1.026      -1.893      -0.105
   full:        1.094      -2.656      -0.078       7.304

           -------------------------------------------------
          | TOTAL ENERGY              -42.175521779439 Eh   |
          | GRADIENT NORM               0.005155549430 Eh/α |
          | HOMO-LUMO GAP               1.404651297864 eV   |
           -------------------------------------------------

 * finished run on 2024/06/05 at 20:00:20.796
