   * xtb version 6.6.1 (8d0f1dd) compiled by 'conda@1efc2f54142f' on 2023-08-01
          program call               : xtb xtbopt.xyz --opt crude --input .xc2 --gfn2

   ID    Z sym.   atoms
    1    6 C      1, 3, 5-7, 10, 11, 14
    2    7 N      2, 4, 9, 13
    3    8 O      8, 12
    4    1 H      15-25
########################################################################
[WARNING] Please study the warnings concerning your input carefully
-1- readin_getIntValue: could not parse ''
########################################################################

          :  Hamiltonian                  GFN2-xTB          :
 * total energy  :   -42.1588849 Eh     change       -0.9947598E-12 Eh
 * total energy  :   -42.1621631 Eh     change       -0.3278218E-02 Eh
 * total energy  :   -42.1594856 Eh     change        0.2677482E-02 Eh
 * total energy  :   -42.1653715 Eh     change       -0.5885923E-02 Eh
 * total energy  :   -42.1661994 Eh     change       -0.8278470E-03 Eh
 * total energy  :   -42.1670261 Eh     change       -0.8266954E-03 Eh
 * total energy  :   -42.1672630 Eh     change       -0.2369380E-03 Eh
   *** GEOMETRY OPTIMIZATION CONVERGED AFTER 7 ITERATIONS ***

 final structure:
================
25
 xtb: 6.6.1 (8d0f1dd)
C            4.39727270431445        0.37630138314107       -0.01800067067642
N            3.39477206326230       -0.37482011305906       -0.15477038902996
C            2.71736786638926       -1.43390625547188        0.05385296755768
N            1.38014004642959       -1.55872845672506        0.03569630492331
C            0.40404364004024       -0.56460640818148        0.00098994802743
C            0.69171693142080        0.76194607746682       -0.00121930105908
C           -0.36000742459317        1.75870751671908       -0.00614731805815
O           -0.16317606025014        2.95205513049059       -0.00120524112519
N           -1.65035618184016        1.23227642884703       -0.00566669391127
C           -2.78048862841404        2.14622070324506        0.00908542783918
C           -1.96810293926378       -0.10162265411358       -0.01607468643259
O           -3.10457486264134       -0.49589199675709       -0.02196846544264
N           -0.88997347739038       -1.00540719409587       -0.01710477690141
C           -1.23809280257144       -2.41473960726687       -0.03923050717666
H            4.81242841835520        0.61076787441559        0.95589126531427
H            4.80754616910492        0.87062844322580       -0.89379055947772
H            1.69824201075362        1.13516499302181        0.01024444300750
H            3.25807481308306       -2.37620273617470        0.15186318202097
H           -2.39413027211151        3.16285476037336        0.02629157536011
H           -3.39435863247314        1.98413700478068       -0.87717238096556
H           -3.39372138856144        1.95362149622147        0.88968973557584
H           -0.91371376814524       -2.92158972334825        0.87191265242510
H           -0.84125895234764       -2.90778463459476       -0.92828941407462
H           -2.32783846991238       -2.46604300686001       -0.08027318630099
H            1.01862071146366       -2.50510048370020        0.08656770648048

          :  Hamiltonian                  GFN2-xTB          :
         :: total energy             -42.167263028477 Eh    ::
         :: gradient norm              0.008246782856 Eh/a0 ::
         :: HOMO-LUMO gap              2.105798671527 eV    ::
         :: SCC energy               -42.721140540016 Eh    ::
         :: -> dispersion             -0.021464629926 Eh    ::
         :: repulsion energy           0.553834725799 Eh    ::

    * Orbital Energies and Occupations

         #    Occupation            Energy/Eh            Energy/eV
      -------------------------------------------------------------
         1        2.0000           -0.8817471             -23.9936
       ...           ...                  ...                  ...
        25        1.9999           -0.6615563             -18.0019
        26        1.9999           -0.6567104             -17.8700
        27        1.9998           -0.6438219             -17.5193
        28        1.9997           -0.6399096             -17.4128
        29        1.9996           -0.6327203             -17.2172
        30        1.9991           -0.6198711             -16.8676
        31        1.9989           -0.6178327             -16.8121
        32        1.9942           -0.5911738             -16.0867
        33        1.9933           -0.5888289             -16.0228
        34        1.9775           -0.5695046             -15.4970
        35        1.9318           -0.5515515             -15.0085
        36        1.9120           -0.5473633             -14.8945
        37        1.9013           -0.5454458             -14.8423 (HOMO)
        38        0.2536           -0.4680591             -12.7365 (LUMO)
        39        0.0377           -0.4360529             -11.8656
        40        0.0013           -0.3819338             -10.3929
        41        0.0004           -0.3655151              -9.9462
        42        0.0000           -0.2758081              -7.5051
        43                         -0.1930113              -5.2521
        44                         -0.1708008              -4.6477
        45                         -0.1217580              -3.3132
        46                         -0.1069437              -2.9101
        47                         -0.0787654              -2.1433
        48                         -0.0409517              -1.1144
       ...                                ...                  ...
        67                          0.6043808              16.4460
      -------------------------------------------------------------
                  HL-Gap            0.0773867 Eh            2.1058 eV

     #   Z          covCN         q      C6AA      α(0)
     1   6 C        2.767     0.015    27.664     8.614
     2   7 N        1.826    -0.010    22.149     6.974
     3   6 C        2.757     0.110    25.546     8.277
     4   7 N        2.696    -0.086    22.926     7.111
     5   6 C        2.834     0.128    25.179     8.223
     6   6 C        2.908    -0.110    30.783     9.098
     7   6 C        2.768     0.277    22.316     7.737
     8   8 O        0.859    -0.341    20.545     6.077
     9   7 N        2.742    -0.072    22.639     7.067
    10   6 C        3.708    -0.060    21.804     6.674
    11   6 C        2.725     0.320    21.564     7.602
    12   8 O        0.860    -0.368    21.052     6.152
    13   7 N        2.748    -0.063    22.467     7.040
    14   6 C        3.698    -0.076    22.136     6.729
    15   1 H        0.925     0.134     1.508     1.920
    16   1 H        0.925     0.143     1.438     1.875
    17   1 H        0.926     0.096     1.822     2.111
    18   1 H        0.924     0.124     1.584     1.968
    19   1 H        0.925     0.115     1.655     2.012
    20   1 H        0.924     0.102     1.767     2.079
    21   1 H        0.924     0.101     1.772     2.082
    22   1 H        0.924     0.078     1.997     2.210
    23   1 H        0.924     0.079     1.986     2.204
    24   1 H        0.924     0.134     1.506     1.919
    25   1 H        0.860     0.232     0.958     1.534

Wiberg/Mayer (AO) data.
largest (>0.10) Wiberg bond orders for each atom

     #   Z sym  total        # sym  WBO       # sym  WBO       # sym  WBO
 ---------------------------------------------------------------------------
     1   6 C    3.702 --     2 N    1.731    16 H    0.932    15 H    0.925
     2   7 N    3.475 --     1 C    1.731     3 C    1.557     4 N    0.123
     3   6 C    3.888 --     2 N    1.557     4 N    1.275    18 H    0.910
     4   7 N    3.534 --     3 C    1.275     5 C    1.087    25 H    0.902
                             2 N    0.123
     5   6 C    3.930 --     6 C    1.528    13 N    1.179     4 N    1.087
     6   6 C    3.864 --     5 C    1.528     7 C    1.093    17 H    0.951
     7   6 C    3.947 --     8 O    1.683     6 C    1.093     9 N    1.088
     8   8 O    1.979 --     7 C    1.683     9 N    0.125
     9   7 N    3.525 --    11 C    1.142     7 C    1.088    10 C    0.975
                            12 O    0.130     8 O    0.125
    10   6 C    3.898 --     9 N    0.975    19 H    0.965    21 H    0.956
                            20 H    0.956
    11   6 C    3.959 --    12 O    1.677     9 N    1.142    13 N    1.052
    12   8 O    2.016 --    11 C    1.677     9 N    0.130    13 N    0.118
    13   7 N    3.520 --     5 C    1.179    11 C    1.052    14 C    0.983
                            12 O    0.118
    14   6 C    3.928 --    13 N    0.983    23 H    0.966    22 H    0.965
                            24 H    0.955
    15   1 H    0.974 --     1 C    0.925
    16   1 H    0.975 --     1 C    0.932
    17   1 H    0.989 --     6 C    0.951
    18   1 H    0.969 --     3 C    0.910
    19   1 H    0.983 --    10 C    0.965
    20   1 H    0.975 --    10 C    0.956
    21   1 H    0.975 --    10 C    0.956
    22   1 H    0.988 --    14 C    0.965
    23   1 H    0.988 --    14 C    0.966
    24   1 H    0.981 --    14 C    0.955
    25   1 H    0.946 --     4 N    0.902
 ---------------------------------------------------------------------------

molecular dipole:
                 x           y           z       tot (Debye)
 q only:        3.423      -2.070       0.070
   full:        3.729      -2.438       0.154      11.330

           -------------------------------------------------
          | TOTAL ENERGY              -42.167263028477 Eh   |
          | GRADIENT NORM               0.008246782856 Eh/α |
          | HOMO-LUMO GAP               2.105798671527 eV   |
           -------------------------------------------------

 * finished run on 2024/06/05 at 19:57:50.336
