   * xtb version 6.6.1 (8d0f1dd) compiled by 'conda@1efc2f54142f' on 2023-08-01
          program call               : xtb struc.xyz --opt loose --input .xc1 --gfn2

   ID    Z sym.   atoms
    1    7 N      1, 17
    2    6 C      2-6, 8, 9, 11-16, 18-23, 25, 26, 28-33
    3    8 O      7, 10, 24, 27
    4    1 H      34-72
constraining bond 29 50 to    4.7133300 Å, actual value:    3.6463368 Å

          :  Hamiltonian                  GFN2-xTB          :
 * total energy  :   -99.6074092 Eh     change       -0.4035485E-08 Eh
 * total energy  :   -99.8909769 Eh     change       -0.2835677E+00 Eh
 * total energy  :  -100.2651735 Eh     change       -0.3741966E+00 Eh
 * total energy  :  -100.7430020 Eh     change       -0.4778285E+00 Eh
 * total energy  :  -101.3838452 Eh     change       -0.6408432E+00 Eh
 * total energy  :  -100.9236754 Eh     change        0.4601698E+00 Eh
 * total energy  :  -101.6794049 Eh     change       -0.7557295E+00 Eh
 * total energy  :  -101.7614094 Eh     change       -0.8200451E-01 Eh
 * total energy  :  -101.8736518 Eh     change       -0.1122423E+00 Eh
 * total energy  :  -101.9076052 Eh     change       -0.3395344E-01 Eh
 * total energy  :  -101.9966164 Eh     change       -0.1162698E-03 Eh
 * total energy  :  -101.9967366 Eh     change       -0.1202605E-03 Eh
 * total energy  :  -101.9968768 Eh     change       -0.1401724E-03 Eh
 * total energy  :  -101.9969911 Eh     change       -0.1142880E-03 Eh
 * total energy  :  -101.9970873 Eh     change       -0.9615398E-04 Eh
 * total energy  :  -101.9971529 Eh     change       -0.6561526E-04 Eh
 * total energy  :  -101.9972182 Eh     change       -0.6527511E-04 Eh
 * total energy  :  -101.9972749 Eh     change       -0.5677143E-04 Eh
 * total energy  :  -101.9973165 Eh     change       -0.4156177E-04 Eh
   *** GEOMETRY OPTIMIZATION CONVERGED AFTER 66 ITERATIONS ***

 final structure:
================
72
 xtb: 6.6.1 (8d0f1dd)
N           -1.34513654938475        2.67964257836626        1.80140249332857
C           -1.51722929274100        1.84942999477473        0.88188248973572
C           -2.78626508832291        1.71756851769531        0.08522401818152
C           -3.37125985531224        0.32824218912201        0.28160416688623
C           -4.40836067603377       -0.11103031383754       -0.54352483795308
C           -4.99839480914799       -1.35140245217817       -0.36870535934408
O           -6.00624132641658       -1.84705508050349       -1.11719715975861
C           -6.56749465834002       -1.04766049278438       -2.13220561730000
C           -4.53960382567409       -2.20432985445118        0.67090331368757
O           -5.17273616939076       -3.39096028361105        0.77170801907883
C           -4.84752580566528       -4.25142654542019        1.83783561069945
C           -3.50891782649114       -1.76380830202098        1.48532062536743
C           -2.93531673215331       -0.51300189724814        1.29392976458842
C           -2.38723949019789        1.93108804352230       -1.39968037967675
C           -1.63120639918707        0.75809732233868       -2.05327606782259
C           -0.20710863689324        0.68302263853270       -1.63468435151887
N            0.43665571043342       -0.40593635898251       -1.21997737564812
C            1.73377608818910       -0.43641736005331       -0.89311209534442
C            2.60405290820697        0.76357268576989       -1.02339559483189
C            4.04438306282429        0.62375348544409       -0.60703595842876
C            4.88221646744729        1.68532882786336       -0.73644482545788
C            6.23373407172984        1.64292708170237       -0.36412699929988
C            6.78723389183357        0.48425834547761        0.18482825401692
O            8.07006730849942        0.35161849652259        0.59403545266817
C            8.95273609055521        1.44006124530924        0.44210083467106
C            5.98658228167185       -0.64470489191288        0.35442987833724
O            6.56636029687486       -1.72086690503333        0.90649906931638
C            5.82175540544565       -2.89867335138386        1.10831607069781
C            4.53506246217806       -0.69752598013509       -0.06455434875314
C           -0.31590154608294       -1.64222670708251       -1.07653125572119
C           -3.87788963819624        2.75360427217371        0.48879754766950
C           -4.33398307493799        2.55284388724378        1.93229052541385
C           -3.44141704496930        4.20175443433952        0.28341740724048
H           -4.77018051271302        0.53567691281299       -1.32526720390193
H           -6.99253769571033       -0.12458026947066       -1.72675163390854
H           -7.36319935392435       -1.64751784721354       -2.57007438499403
H           -5.83190489377964       -0.80491804870087       -2.90625428687972
H           -5.00477936457503       -3.76698000528589        2.80595815040079
H           -5.52266883959431       -5.09978122299088        1.74520910480634
H           -3.81326111745236       -4.60364937975755        1.76899346482240
H           -3.14914276593624       -2.38432230103917        2.28982023695494
H           -2.15979325550135       -0.19109295391260        1.97209349031117
H           -3.29448983297675        2.11170585402317       -1.97550994798683
H           -1.77190071236652        2.82872040727861       -1.46956046998629
H           -2.17076391886563       -0.16760046891663       -1.86603044315196
H           -1.65415089251192        0.94054240233517       -3.13561721014892
H           -0.73145801269115        1.15998659409160        0.53265348568972
H            0.36957845899037        1.58157722023820       -1.76295112894517
H            2.13046475812808       -1.38268638284320       -0.58396136745234
H            4.10073399912217       -0.95743736616427        0.48059665872612
H            2.17092268652651        1.59140880094864       -0.44196895132983
H            2.59159782645288        1.10313339375960       -2.07228044770666
H            4.50210648036256        2.61402535952388       -1.13628586428501
H            6.83601760871249        2.52422266965572       -0.49550121571569
H            8.63007603421526        2.30606759909764        1.02938616631234
H            9.05880898376407        1.72893741142923       -0.60751412458376
H            9.91131310915041        1.08863110066321        0.81789130306864
H            6.51111444825546       -3.60841782678729        1.56094223478637
H            4.97970110260060       -2.73335507458626        1.78802776140365
H            5.45394703260514       -3.30975934883246        0.16306116674776
H            4.51714709666069       -1.39546169323064       -0.93998987552479
H           -0.70873746393980       -1.95646381911462       -2.04247600434592
H           -1.14745700511276       -1.50191581019171       -0.38300493586374
H            0.32904395379103       -2.42816689511412       -0.69273408241807
H           -4.73858616226402        2.56369955288481       -0.16334849697569
H           -3.51241113641011        2.75113805288761        2.61353905732576
H           -4.69228041520319        1.53888015194784        2.09460976430360
H           -5.14382228520865        3.24180056956968        2.15758823077074
H           -2.55509699261990        4.41429509907354        0.87268797220974
H           -3.24019899448323        4.42084526380034       -0.76168015689430
H           -4.23726382659746        4.86382324369806        0.61455791141928
H           -0.43536013226900        2.69934130739203        2.25233760080311

          :  Hamiltonian                  GFN2-xTB          :
         :: total energy            -101.997316523069 Eh    ::
         :: gradient norm              0.003372801175 Eh/a0 ::
         :: HOMO-LUMO gap              0.900853442882 eV    ::
         :: SCC energy              -100.738241613126 Eh    ::
         :: -> dispersion             -0.075139423522 Eh    ::
         :: repulsion energy           1.552947879102 Eh    ::

    * Orbital Energies and Occupations

         #    Occupation            Energy/Eh            Energy/eV
      -------------------------------------------------------------
         1        2.0000           -0.8303557             -22.5951
       ...           ...                  ...                  ...
        78        1.9988           -0.5301911             -14.4272
        79        1.9986           -0.5278768             -14.3643
        80        1.9982           -0.5234334             -14.2433
        81        1.9981           -0.5232069             -14.2372
        82        1.9973           -0.5171987             -14.0737
        83        1.9956           -0.5095177             -13.8647
        84        1.9949           -0.5073768             -13.8064
        85        1.9937           -0.5038271             -13.7098
        86        1.9798           -0.4853211             -13.2063
        87        1.9503           -0.4708151             -12.8115
        88        1.9345           -0.4663046             -12.6888
        89        1.8691           -0.4548051             -12.3759
        90        1.5983           -0.4345751             -11.8254 (HOMO)
        91        0.6593           -0.4014694             -10.9245 (LUMO)
        92        0.0180           -0.3382482              -9.2042
        93        0.0114           -0.3309215              -9.0048
        94        0.0046           -0.3164870              -8.6121
        95        0.0033           -0.3114781              -8.4758
        96        0.0028           -0.3084929              -8.3945
        97        0.0000           -0.2280461              -6.2054
        98        0.0000           -0.1858284              -5.0566
        99                         -0.1145170              -3.1162
       100                         -0.0887117              -2.4140
       101                         -0.0779110              -2.1201
       ...                                ...                  ...
       171                          1.4076364              38.3037
      -------------------------------------------------------------
                  HL-Gap            0.0331058 Eh            0.9009 eV

     #   Z          covCN         q      C6AA      α(0)
     1   7 N        1.774    -0.275    27.947     7.828
     2   6 C        2.827     0.102    25.739     8.313
     3   6 C        3.907     0.007    20.405     6.421
     4   6 C        2.974     0.003    27.952     8.672
     5   6 C        2.921    -0.079    29.978     8.979
     6   6 C        2.862     0.129    25.164     8.223
     7   8 O        1.706    -0.231    17.828     5.701
     8   6 C        3.644     0.028    20.441     6.499
     9   6 C        2.864     0.128    25.186     8.226
    10   8 O        1.706    -0.230    17.809     5.698
    11   6 C        3.645     0.028    20.444     6.498
    12   6 C        2.914    -0.074    29.858     8.960
    13   6 C        2.921    -0.053    29.326     8.881
    14   6 C        3.811    -0.064    21.718     6.633
    15   6 C        3.801    -0.067    21.779     6.644
    16   6 C        2.862    -0.045    29.117     8.845
    17   7 N        2.730     0.073    19.976     6.638
    18   6 C        2.863    -0.062    29.532     8.908
    19   6 C        3.809    -0.066    21.753     6.639
    20   6 C        2.950    -0.009    28.244     8.717
    21   6 C        2.907    -0.046    29.131     8.850
    22   6 C        2.913    -0.069    29.707     8.937
    23   6 C        2.849     0.129    25.160     8.221
    24   8 O        1.706    -0.237    17.923     5.716
    25   6 C        3.644     0.026    20.480     6.505
    26   6 C        2.851     0.120    25.352     8.252
    27   8 O        1.706    -0.199    17.320     5.619
    28   6 C        3.644     0.021    20.567     6.519
    29   6 C        3.809    -0.105    22.501     6.752
    30   6 C        3.719    -0.073    22.018     6.702
    31   6 C        3.853    -0.007    20.673     6.467
    32   6 C        3.755    -0.117    22.797     6.808
    33   6 C        3.755    -0.119    22.829     6.813
    34   1 H        0.926     0.053     2.288     2.365
    35   1 H        0.924     0.053     2.277     2.360
    36   1 H        0.925     0.080     1.977     2.199
    37   1 H        0.924     0.047     2.355     2.400
    38   1 H        0.924     0.054     2.270     2.356
    39   1 H        0.925     0.080     1.977     2.199
    40   1 H        0.924     0.048     2.348     2.397
    41   1 H        0.926     0.051     2.312     2.378
    42   1 H        0.926     0.038     2.472     2.459
    43   1 H        0.925     0.055     2.258     2.350
    44   1 H        0.924     0.051     2.308     2.376
    45   1 H        0.925     0.055     2.258     2.350
    46   1 H        0.924     0.063     2.167     2.302
    47   1 H        0.923     0.006     2.957     2.689
    48   1 H        0.926     0.054     2.270     2.356
    49   1 H        0.926     0.048     2.344     2.394
    50   1 H        0.930     0.129     1.546     1.944
    51   1 H        0.923     0.070     2.082     2.256
    52   1 H        0.923     0.074     2.045     2.236
    53   1 H        0.926     0.055     2.262     2.352
    54   1 H        0.926     0.065     2.141     2.288
    55   1 H        0.924     0.054     2.271     2.357
    56   1 H        0.924     0.054     2.267     2.355
    57   1 H        0.925     0.082     1.957     2.188
    58   1 H        0.925     0.091     1.870     2.139
    59   1 H        0.924     0.057     2.235     2.338
    60   1 H        0.924     0.058     2.225     2.333
    61   1 H        0.920     0.082     1.961     2.190
    62   1 H        0.925     0.081     1.971     2.196
    63   1 H        0.924     0.082     1.960     2.190
    64   1 H        0.925     0.076     2.021     2.223
    65   1 H        0.924     0.036     2.503     2.474
    66   1 H        0.925     0.066     2.128     2.281
    67   1 H        0.925     0.034     2.531     2.488
    68   1 H        0.925     0.050     2.325     2.384
    69   1 H        0.925     0.063     2.168     2.302
    70   1 H        0.925     0.035     2.515     2.480
    71   1 H        0.925     0.053     2.286     2.365
    72   1 H        0.860     0.151     1.392     1.848

Wiberg/Mayer (AO) data.
largest (>0.10) Wiberg bond orders for each atom

     #   Z sym  total        # sym  WBO       # sym  WBO       # sym  WBO
 ---------------------------------------------------------------------------
     1   7 N    3.018 --     2 C    1.950    72 H    0.944
     2   6 C    3.934 --     1 N    1.950     3 C    0.995    47 H    0.917
     3   6 C    3.974 --     2 C    0.995     4 C    0.973    14 C    0.954
                            31 C    0.943
     4   6 C    3.949 --    13 C    1.412     5 C    1.369     3 C    0.973
     5   6 C    3.962 --     6 C    1.401     4 C    1.369    34 H    0.958
     6   6 C    3.904 --     5 C    1.401     9 C    1.223     7 O    1.098
     7   8 O    2.252 --     6 C    1.098     8 C    0.978
     8   6 C    3.933 --     7 O    0.978    36 H    0.977    37 H    0.974
                            35 H    0.973
     9   6 C    3.900 --    12 C    1.392     6 C    1.223    10 O    1.099
    10   8 O    2.250 --     9 C    1.099    11 C    0.978
    11   6 C    3.932 --    10 O    0.978    39 H    0.977    38 H    0.974
                            40 H    0.974
    12   6 C    3.962 --    13 C    1.404     9 C    1.392    41 H    0.964
    13   6 C    3.953 --     4 C    1.412    12 C    1.404    42 H    0.963
    14   6 C    3.974 --    15 C    0.983    44 H    0.972    43 H    0.968
                             3 C    0.954
    15   6 C    3.987 --    16 C    1.050    14 C    0.983    45 H    0.964
                            46 H    0.942
    16   6 C    3.677 --    17 N    1.341    15 C    1.050    48 H    0.959
                            18 C    0.220
    17   7 N    3.720 --    16 C    1.341    18 C    1.316    30 C    0.986
    18   6 C    3.638 --    17 N    1.316    19 C    1.047    49 H    0.962
                            16 C    0.220
    19   6 C    3.988 --    18 C    1.047    20 C    1.017    51 H    0.928
                            52 H    0.925
    20   6 C    3.781 --    21 C    1.599    29 C    1.020    19 C    1.017
    21   6 C    3.978 --    20 C    1.599    22 C    1.306    53 H    0.964
    22   6 C    3.740 --    23 C    1.325    21 C    1.306    54 H    0.965
    23   6 C    3.912 --    26 C    1.334    22 C    1.325    24 O    1.089
    24   8 O    2.243 --    23 C    1.089    25 C    0.976
    25   6 C    3.929 --    57 H    0.976    24 O    0.976    56 H    0.974
                            55 H    0.974
    26   6 C    3.671 --    23 C    1.334    27 O    1.145    29 C    1.017
    27   8 O    2.268 --    26 C    1.145    28 C    0.975
    28   6 C    3.925 --    58 H    0.976    27 O    0.975    59 H    0.971
                            60 H    0.970
    29   6 C    3.972 --    20 C    1.020    26 C    1.017    50 H    0.942
                            61 H    0.899
    30   6 C    3.956 --    17 N    0.986    64 H    0.977    62 H    0.971
                            63 H    0.964
    31   6 C    3.972 --    33 C    1.008    32 C    1.008    65 H    0.960
                             3 C    0.943
    32   6 C    3.980 --    31 C    1.008    67 H    0.982    68 H    0.982
                            66 H    0.974
    33   6 C    3.981 --    31 C    1.008    70 H    0.983    71 H    0.980
                            69 H    0.975
    34   1 H    0.996 --     5 C    0.958
    35   1 H    0.993 --     8 C    0.973
    36   1 H    0.993 --     8 C    0.977
    37   1 H    0.994 --     8 C    0.974
    38   1 H    0.993 --    11 C    0.974
    39   1 H    0.993 --    11 C    0.977
    40   1 H    0.993 --    11 C    0.974
    41   1 H    0.996 --    12 C    0.964
    42   1 H    0.998 --    13 C    0.963
    43   1 H    0.995 --    14 C    0.968
    44   1 H    0.996 --    14 C    0.972
    45   1 H    0.996 --    15 C    0.964
    46   1 H    0.978 --    15 C    0.942
    47   1 H    0.983 --     2 C    0.917
    48   1 H    0.997 --    16 C    0.959
    49   1 H    0.997 --    18 C    0.962
    50   1 H    0.972 --    29 C    0.942
    51   1 H    0.972 --    19 C    0.928
    52   1 H    0.970 --    19 C    0.925
    53   1 H    0.997 --    21 C    0.964
    54   1 H    0.994 --    22 C    0.965
    55   1 H    0.994 --    25 C    0.974
    56   1 H    0.994 --    25 C    0.974
    57   1 H    0.992 --    25 C    0.976
    58   1 H    0.991 --    28 C    0.976
    59   1 H    0.990 --    28 C    0.971
    60   1 H    0.991 --    28 C    0.970
    61   1 H    0.946 --    29 C    0.899
    62   1 H    0.993 --    30 C    0.971
    63   1 H    0.993 --    30 C    0.964
    64   1 H    0.994 --    30 C    0.977
    65   1 H    0.992 --    31 C    0.960
    66   1 H    0.991 --    32 C    0.974
    67   1 H    0.997 --    32 C    0.982
    68   1 H    0.994 --    32 C    0.982
    69   1 H    0.992 --    33 C    0.975
    70   1 H    0.997 --    33 C    0.983
    71   1 H    0.994 --    33 C    0.980
    72   1 H    0.971 --     1 N    0.944
 ---------------------------------------------------------------------------

molecular dipole:
                 x           y           z       tot (Debye)
 q only:        1.747      -0.718      -0.803
   full:        1.981      -0.872      -1.007       6.067

           -------------------------------------------------
          | TOTAL ENERGY             -101.997316523069 Eh   |
          | GRADIENT NORM               0.003372801175 Eh/α |
          | HOMO-LUMO GAP               0.900853442882 eV   |
           -------------------------------------------------

 * finished run on 2024/04/06 at 11:15:29.221
