   * xtb version 6.6.1 (8d0f1dd) compiled by 'conda@1efc2f54142f' on 2023-08-01
          program call               : xtb xtbopt.xyz --opt crude --input .xc2 --gfn2

   ID    Z sym.   atoms
    1    7 N      1, 17
    2    6 C      2-6, 8, 9, 11-16, 18-23, 25, 26, 28-33
    3    8 O      7, 10, 24, 27
    4    1 H      34-72
########################################################################
[WARNING] Please study the warnings concerning your input carefully
-1- readin_getIntValue: could not parse ''
########################################################################

          :  Hamiltonian                  GFN2-xTB          :
 * total energy  :   -99.1839631 Eh     change       -0.1392664E-10 Eh
 * total energy  :   -99.3452061 Eh     change       -0.1612430E+00 Eh
 * total energy  :   -99.3469342 Eh     change       -0.1728045E-02 Eh
 * total energy  :   -99.3478860 Eh     change       -0.9518528E-03 Eh
 * total energy  :   -99.3481025 Eh     change       -0.2164451E-03 Eh
   *** GEOMETRY OPTIMIZATION CONVERGED AFTER 5 ITERATIONS ***

 final structure:
================
72
 xtb: 6.6.1 (8d0f1dd)
N           -1.34725703085497        2.68560385958444        1.80303568437395
C           -1.51725235218838        1.85475073202294        0.88381203362316
C           -2.78543766303085        1.72061665070510        0.08575529272031
C           -3.36850616993309        0.33044516244922        0.28153610035485
C           -4.40336904880884       -0.11073429933693       -0.54542167498291
C           -4.99150715355413       -1.35210432974986       -0.37132689702772
O           -5.99688674905807       -1.85038521998502       -1.12124578013841
C           -6.56516508457608       -1.05067292236277       -2.13104045466694
C           -4.53422971812352       -2.20305894446190        0.67060780377579
O           -5.16731130410346       -3.38986939227678        0.77026848351325
C           -4.84285183627983       -4.25142158084927        1.83589569894004
C           -3.50645534968665       -1.76047633878430        1.48767552395295
C           -2.93375096599870       -0.50931880551906        1.29566295310788
C           -2.38489529707967        1.93451002388371       -1.39852145502503
C           -1.62868444207040        0.76079206073004       -2.04994359975527
C           -0.20458056781498        0.68764185200614       -1.63221739429317
N            0.44153018662890       -0.40439997183078       -1.22838004190682
C            1.74187533277013       -0.43689575152378       -0.91686851840795
C            2.60913684256165        0.76354556121965       -1.03658112793765
C            4.05176891178503        0.62048469393402       -0.63264648360600
C            4.88582266426098        1.68947391656752       -0.74377669573844
C            6.23881095973210        1.64336486793047       -0.37640234106378
C            6.79409073161325        0.48296698890393        0.16567216959524
O            8.07385400210659        0.35358638054638        0.58372999574401
C            8.95249405310218        1.44821764321359        0.44404790945203
C            5.99096969087908       -0.65013816924126        0.32683300702073
O            6.56850604343841       -1.72104363859426        0.88964584034872
C            5.83296300767414       -2.90238826719083        1.09477400871581
C            4.56354466802614       -0.68341938806164       -0.11201306129995
C           -0.31093373005460       -1.64041034336754       -1.07937509937776
C           -3.87943287228520        2.75458908304544        0.48785142548676
C           -4.33647649001438        2.55333901496804        1.93088841150475
C           -3.44536819819271        4.20335001954711        0.28252823351681
H           -4.76395478622191        0.53479415220836       -1.32874517721975
H           -6.98794743294833       -0.12786184640714       -1.72224482446627
H           -7.36333642121323       -1.65077735297901       -2.56344506559555
H           -5.83559679572675       -0.80629454725779       -2.91004898534964
H           -5.00442733983851       -3.76913436224090        2.80455805736700
H           -5.51561208778463       -5.10133711946014        1.73941484620659
H           -3.80733607575196       -4.60055396777495        1.76950367571755
H           -3.14881515425979       -2.37862593816203        2.29517694342408
H           -2.15990077714793       -0.18577457269443        1.97495681176303
H           -3.29122113599000        2.11527611985639       -1.97585420881813
H           -1.76891415021823        2.83174023901823       -1.46783774359188
H           -2.16621771382303       -0.16506984799701       -1.85862001647333
H           -1.65274638064110        0.93935501832920       -3.13277940309121
H           -0.73007846943450        1.16680562175806        0.53447187767463
H            0.37300688375304        1.58646522142510       -1.75934764638695
H            2.13901922327533       -1.38460768778250       -0.61403206679449
H            3.93429635726057       -1.03350879195744        0.71159659847077
H            2.18153385643899        1.58314057124377       -0.43889044570502
H            2.58370214021952        1.12172290154696       -2.07751339478418
H            4.50301907618151        2.62491514418587       -1.12565826108105
H            6.83997943591361        2.52667893102047       -0.50400406012579
H            8.62034300344692        2.30801966173809        1.03332953301322
H            9.06472703411151        1.74133595920172       -0.60396253770111
H            9.91060520818861        1.09993972171727        0.82488584080662
H            6.52946846282197       -3.60649567173393        1.54593093580936
H            4.99372099163410       -2.74166866103638        1.77922901327229
H            5.45922519750740       -3.31668755912794        0.15357682793775
H            4.46643351745384       -1.44401487319699       -0.90875744217551
H           -0.70911860988653       -1.95693919827064       -2.04293412224959
H           -1.13843325405456       -1.49831439939111       -0.38136612379222
H            0.33593295637583       -2.42608705581841       -0.69752583008760
H           -4.73895088135158        2.56269183691974       -0.16501193554385
H           -3.51691196036358        2.75667548012005        2.61273576591002
H           -4.68987027795419        1.53797732491546        2.09393534210004
H           -5.15015672919822        3.23829059365897        2.15439443641790
H           -2.56204198935455        4.41841449184829        0.87558599292359
H           -3.23978175206261        4.42138132793295       -0.76200102236520
H           -4.24421193436271        4.86396449459784        0.60937467346101
H           -0.43793070888295        2.70776701444491        2.25472803319370

          :  Hamiltonian                  GFN2-xTB          :
         :: total energy             -99.348102457155 Eh    ::
         :: gradient norm              0.007106945818 Eh/a0 ::
         :: HOMO-LUMO gap              0.899652539881 eV    ::
         :: SCC energy              -100.714164869059 Eh    ::
         :: -> dispersion             -0.075130127704 Eh    ::
         :: repulsion energy           1.364722110534 Eh    ::

    * Orbital Energies and Occupations

         #    Occupation            Energy/Eh            Energy/eV
      -------------------------------------------------------------
         1        2.0000           -0.8297746             -22.5793
       ...           ...                  ...                  ...
        78        1.9988           -0.5299936             -14.4219
        79        1.9986           -0.5274447             -14.3525
        80        1.9982           -0.5233272             -14.2405
        81        1.9982           -0.5231426             -14.2354
        82        1.9973           -0.5171337             -14.0719
        83        1.9956           -0.5093924             -13.8613
        84        1.9950           -0.5073069             -13.8045
        85        1.9937           -0.5037350             -13.7073
        86        1.9799           -0.4852212             -13.2035
        87        1.9488           -0.4701591             -12.7937
        88        1.9347           -0.4661946             -12.6858
        89        1.8696           -0.4546941             -12.3729
        90        1.5981           -0.4343920             -11.8204 (HOMO)
        91        0.6602           -0.4013303             -10.9208 (LUMO)
        92        0.0179           -0.3380203              -9.1980
        93        0.0114           -0.3307825              -9.0010
        94        0.0045           -0.3161529              -8.6030
        95        0.0034           -0.3113934              -8.4734
        96        0.0028           -0.3084149              -8.3924
        97        0.0000           -0.2290715              -6.2334
        98        0.0000           -0.1857715              -5.0551
        99                         -0.1144478              -3.1143
       100                         -0.0844847              -2.2989
       101                         -0.0737084              -2.0057
       ...                                ...                  ...
       171                          0.5772971              15.7091
      -------------------------------------------------------------
                  HL-Gap            0.0330616 Eh            0.8997 eV

     #   Z          covCN         q      C6AA      α(0)
     1   7 N        1.774    -0.275    27.945     7.828
     2   6 C        2.827     0.102    25.737     8.313
     3   6 C        3.907     0.007    20.406     6.421
     4   6 C        2.974     0.003    27.953     8.672
     5   6 C        2.921    -0.079    29.978     8.979
     6   6 C        2.862     0.129    25.165     8.223
     7   8 O        1.706    -0.231    17.827     5.701
     8   6 C        3.644     0.028    20.439     6.498
     9   6 C        2.864     0.128    25.188     8.226
    10   8 O        1.706    -0.230    17.810     5.698
    11   6 C        3.645     0.028    20.444     6.498
    12   6 C        2.914    -0.074    29.858     8.960
    13   6 C        2.921    -0.053    29.327     8.881
    14   6 C        3.812    -0.064    21.718     6.633
    15   6 C        3.801    -0.067    21.780     6.645
    16   6 C        2.862    -0.045    29.123     8.846
    17   7 N        2.730     0.073    19.975     6.638
    18   6 C        2.864    -0.061    29.508     8.904
    19   6 C        3.809    -0.066    21.750     6.639
    20   6 C        2.951    -0.004    28.134     8.700
    21   6 C        2.908    -0.045    29.120     8.848
    22   6 C        2.912    -0.068    29.705     8.937
    23   6 C        2.850     0.130    25.148     8.219
    24   8 O        1.706    -0.236    17.915     5.715
    25   6 C        3.644     0.026    20.484     6.506
    26   6 C        2.851     0.125    25.259     8.237
    27   8 O        1.706    -0.197    17.290     5.614
    28   6 C        3.643     0.021    20.560     6.518
    29   6 C        3.810    -0.073    21.891     6.660
    30   6 C        3.719    -0.073    22.020     6.703
    31   6 C        3.853    -0.007    20.673     6.467
    32   6 C        3.756    -0.117    22.798     6.808
    33   6 C        3.755    -0.119    22.829     6.813
    34   1 H        0.926     0.053     2.288     2.366
    35   1 H        0.924     0.053     2.280     2.361
    36   1 H        0.925     0.080     1.977     2.199
    37   1 H        0.924     0.047     2.356     2.400
    38   1 H        0.924     0.054     2.270     2.356
    39   1 H        0.925     0.080     1.977     2.199
    40   1 H        0.924     0.048     2.349     2.397
    41   1 H        0.926     0.051     2.313     2.378
    42   1 H        0.926     0.038     2.474     2.460
    43   1 H        0.925     0.055     2.258     2.350
    44   1 H        0.924     0.051     2.308     2.376
    45   1 H        0.925     0.055     2.254     2.348
    46   1 H        0.924     0.063     2.166     2.302
    47   1 H        0.923     0.006     2.960     2.691
    48   1 H        0.926     0.054     2.271     2.356
    49   1 H        0.926     0.048     2.346     2.395
    50   1 H        0.924     0.079     1.987     2.204
    51   1 H        0.923     0.071     2.077     2.254
    52   1 H        0.923     0.075     2.037     2.232
    53   1 H        0.926     0.055     2.259     2.350
    54   1 H        0.926     0.065     2.142     2.289
    55   1 H        0.924     0.054     2.267     2.354
    56   1 H        0.924     0.055     2.264     2.353
    57   1 H        0.925     0.082     1.956     2.187
    58   1 H        0.925     0.092     1.860     2.133
    59   1 H        0.924     0.057     2.234     2.337
    60   1 H        0.924     0.058     2.226     2.333
    61   1 H        0.922     0.083     1.953     2.185
    62   1 H        0.925     0.081     1.970     2.195
    63   1 H        0.924     0.082     1.958     2.188
    64   1 H        0.925     0.076     2.022     2.224
    65   1 H        0.924     0.036     2.503     2.474
    66   1 H        0.925     0.066     2.128     2.281
    67   1 H        0.925     0.034     2.531     2.488
    68   1 H        0.925     0.050     2.326     2.385
    69   1 H        0.925     0.063     2.168     2.302
    70   1 H        0.925     0.035     2.515     2.480
    71   1 H        0.925     0.053     2.287     2.365
    72   1 H        0.860     0.151     1.392     1.848

Wiberg/Mayer (AO) data.
largest (>0.10) Wiberg bond orders for each atom

     #   Z sym  total        # sym  WBO       # sym  WBO       # sym  WBO
 ---------------------------------------------------------------------------
     1   7 N    3.018 --     2 C    1.950    72 H    0.944
     2   6 C    3.934 --     1 N    1.950     3 C    0.995    47 H    0.917
     3   6 C    3.974 --     2 C    0.995     4 C    0.973    14 C    0.954
                            31 C    0.943
     4   6 C    3.949 --    13 C    1.412     5 C    1.369     3 C    0.973
     5   6 C    3.962 --     6 C    1.401     4 C    1.369    34 H    0.958
     6   6 C    3.904 --     5 C    1.401     9 C    1.223     7 O    1.098
     7   8 O    2.253 --     6 C    1.098     8 C    0.979
     8   6 C    3.933 --     7 O    0.979    36 H    0.977    37 H    0.974
                            35 H    0.973
     9   6 C    3.900 --    12 C    1.392     6 C    1.223    10 O    1.099
    10   8 O    2.250 --     9 C    1.099    11 C    0.978
    11   6 C    3.932 --    10 O    0.978    39 H    0.977    38 H    0.974
                            40 H    0.974
    12   6 C    3.962 --    13 C    1.404     9 C    1.392    41 H    0.964
    13   6 C    3.953 --     4 C    1.412    12 C    1.404    42 H    0.963
    14   6 C    3.975 --    15 C    0.983    44 H    0.972    43 H    0.968
                             3 C    0.954
    15   6 C    3.987 --    16 C    1.050    14 C    0.983    45 H    0.963
                            46 H    0.941
    16   6 C    3.675 --    17 N    1.339    15 C    1.050    48 H    0.959
                            18 C    0.219
    17   7 N    3.719 --    16 C    1.339    18 C    1.317    30 C    0.986
    18   6 C    3.641 --    17 N    1.317    19 C    1.049    49 H    0.961
                            16 C    0.219
    19   6 C    3.988 --    18 C    1.049    20 C    1.017    51 H    0.927
                            52 H    0.925
    20   6 C    3.784 --    21 C    1.593    29 C    1.031    19 C    1.017
    21   6 C    3.977 --    20 C    1.593    22 C    1.308    53 H    0.965
    22   6 C    3.745 --    23 C    1.329    21 C    1.308    54 H    0.964
    23   6 C    3.911 --    22 C    1.329    26 C    1.326    24 O    1.091
    24   8 O    2.244 --    23 C    1.091    25 C    0.975
    25   6 C    3.929 --    57 H    0.977    24 O    0.975    56 H    0.974
                            55 H    0.974
    26   6 C    3.674 --    23 C    1.326    27 O    1.145    29 C    1.031
    27   8 O    2.269 --    26 C    1.145    28 C    0.976
    28   6 C    3.925 --    27 O    0.976    58 H    0.975    60 H    0.969
                            59 H    0.968
    29   6 C    3.987 --    20 C    1.031    26 C    1.031    50 H    0.923
                            61 H    0.911
    30   6 C    3.956 --    17 N    0.986    64 H    0.977    62 H    0.971
                            63 H    0.964
    31   6 C    3.972 --    33 C    1.008    32 C    1.008    65 H    0.960
                             3 C    0.943
    32   6 C    3.980 --    31 C    1.008    67 H    0.982    68 H    0.982
                            66 H    0.975
    33   6 C    3.981 --    31 C    1.008    70 H    0.983    71 H    0.980
                            69 H    0.975
    34   1 H    0.996 --     5 C    0.958
    35   1 H    0.993 --     8 C    0.973
    36   1 H    0.993 --     8 C    0.977
    37   1 H    0.994 --     8 C    0.974
    38   1 H    0.993 --    11 C    0.974
    39   1 H    0.993 --    11 C    0.977
    40   1 H    0.993 --    11 C    0.974
    41   1 H    0.996 --    12 C    0.964
    42   1 H    0.998 --    13 C    0.963
    43   1 H    0.995 --    14 C    0.968
    44   1 H    0.996 --    14 C    0.972
    45   1 H    0.996 --    15 C    0.963
    46   1 H    0.978 --    15 C    0.941
    47   1 H    0.983 --     2 C    0.917
    48   1 H    0.997 --    16 C    0.959
    49   1 H    0.997 --    18 C    0.961
    50   1 H    0.963 --    29 C    0.923
    51   1 H    0.972 --    19 C    0.927
    52   1 H    0.970 --    19 C    0.925
    53   1 H    0.997 --    21 C    0.965
    54   1 H    0.994 --    22 C    0.964
    55   1 H    0.994 --    25 C    0.974
    56   1 H    0.994 --    25 C    0.974
    57   1 H    0.992 --    25 C    0.977
    58   1 H    0.991 --    28 C    0.975
    59   1 H    0.990 --    28 C    0.968
    60   1 H    0.991 --    28 C    0.969
    61   1 H    0.952 --    29 C    0.911
    62   1 H    0.993 --    30 C    0.971
    63   1 H    0.993 --    30 C    0.964
    64   1 H    0.994 --    30 C    0.977
    65   1 H    0.992 --    31 C    0.960
    66   1 H    0.991 --    32 C    0.975
    67   1 H    0.997 --    32 C    0.982
    68   1 H    0.994 --    32 C    0.982
    69   1 H    0.992 --    33 C    0.975
    70   1 H    0.997 --    33 C    0.983
    71   1 H    0.994 --    33 C    0.980
    72   1 H    0.971 --     1 N    0.944
 ---------------------------------------------------------------------------

molecular dipole:
                 x           y           z       tot (Debye)
 q only:        1.787      -0.700      -0.807
   full:        2.000      -0.876      -0.987       6.091

           -------------------------------------------------
          | TOTAL ENERGY              -99.348102457155 Eh   |
          | GRADIENT NORM               0.007106945818 Eh/α |
          | HOMO-LUMO GAP               0.899652539881 eV   |
           -------------------------------------------------

 * finished run on 2024/04/06 at 11:15:30.347
