   * xtb version 6.6.1 (8d0f1dd) compiled by 'conda@1efc2f54142f' on 2023-08-01
          program call               : xtb struc.xyz --opt loose --input .xc1 --gfn2

   ID    Z sym.   atoms
    1    6 C      1, 3, 5-7, 10, 11, 14
    2    7 N      2, 4, 9, 13
    3    8 O      8, 12
    4    1 H      15-25
constraining bond 4 11 to    5.9200000 Å, actual value:    3.6888736 Å

          :  Hamiltonian                  GFN2-xTB          :
 * total energy  :    -6.6948777 Eh     change       -0.6650680E-10 Eh
 * total energy  :   -24.6625869 Eh     change       -0.1796771E+02 Eh
 * total energy  :   -34.7963806 Eh     change       -0.1013379E+02 Eh
 * total energy  :   -40.2356722 Eh     change       -0.5439292E+01 Eh
 * total energy  :   -41.7533884 Eh     change       -0.1517716E+01 Eh
 * total energy  :   -41.8385483 Eh     change       -0.8515982E-01 Eh
 * total energy  :   -41.8493968 Eh     change       -0.1084858E-01 Eh
 * total energy  :   -41.8863559 Eh     change       -0.3695907E-01 Eh
 * total energy  :   -41.9025999 Eh     change       -0.1624400E-01 Eh
 * total energy  :   -41.9387899 Eh     change       -0.3618997E-01 Eh
 * total energy  :   -42.0733245 Eh     change       -0.1116402E-03 Eh
 * total energy  :   -42.0734353 Eh     change       -0.1108241E-03 Eh
 * total energy  :   -42.0735613 Eh     change       -0.1259551E-03 Eh
 * total energy  :   -42.0737072 Eh     change       -0.1458923E-03 Eh
 * total energy  :   -42.0736234 Eh     change        0.8373032E-04 Eh
 * total energy  :   -42.0738852 Eh     change       -0.2617982E-03 Eh
 * total energy  :   -42.0739426 Eh     change       -0.5733482E-04 Eh
 * total energy  :   -42.0740175 Eh     change       -0.7497059E-04 Eh
 * total energy  :   -42.0740579 Eh     change       -0.4041712E-04 Eh
   *** GEOMETRY OPTIMIZATION CONVERGED AFTER 81 ITERATIONS ***

 final structure:
================
25
 xtb: 6.6.1 (8d0f1dd)
C            2.62428859544249        0.83030711922914        0.91772594237576
N            1.98854937246449       -0.15906521649194        0.06543357461480
C            2.79098802925530       -1.02338050988352       -0.63051203623303
N            2.55160966041353       -1.92013493269502       -1.47879784720384
C           -0.18193616493396       -1.17223783933949        0.16809961523307
C            0.56525937370814       -0.06663257921817       -0.02434596676086
C            0.04727885777297        1.23415446416355       -0.29003947375214
O            0.62939945826395        2.20430789481231       -0.66761800175393
N           -1.47980450387723        1.46794810364386       -0.02884413159492
C           -1.99220787488835        2.71669963760385       -0.61843095490661
C           -2.20632914444217        0.80758087603169        0.74694621909507
O           -2.79716992600590        0.11902645117790        1.45897918863044
N           -0.76754404455942       -2.14359877805211        0.49274658666978
C           -1.40140093047467       -3.36101889361380        0.26496241796978
H            1.99735508162090        1.02810653363955        1.78644141269954
H            3.58480988623455        0.45404243001308        1.26058551751945
H            2.78480622265821        1.76821520180710        0.38046682673816
H            3.83979928710684       -0.89549419714450       -0.37791721480446
H           -1.19463359367364        3.13484291394491       -1.23203722336364
H           -2.86693910019334        2.50926992418300       -1.23159642837692
H           -2.24817000342907        3.43065597718567        0.16299548733718
H           -0.86305912514138       -4.12999874067020        0.82258757633833
H           -1.43253327174889       -3.62450788746827       -0.79464571186580
H           -2.41406572887990       -3.29942945761123        0.66801718146007
H            1.60208110144350       -2.09141995367885       -1.79003093817332

          :  Hamiltonian                  GFN2-xTB          :
         :: total energy             -42.074057949340 Eh    ::
         :: gradient norm              0.002390145156 Eh/a0 ::
         :: HOMO-LUMO gap              1.779944291713 eV    ::
         :: SCC energy               -42.681995184885 Eh    ::
         :: -> dispersion             -0.020714442718 Eh    ::
         :: repulsion energy           0.607729547641 Eh    ::

    * Orbital Energies and Occupations

         #    Occupation            Energy/Eh            Energy/eV
      -------------------------------------------------------------
         1        2.0000           -0.9460462             -25.7432
       ...           ...                  ...                  ...
        25        2.0000           -0.6746481             -18.3581
        26        2.0000           -0.6637556             -18.0617
        27        1.9998           -0.6344578             -17.2645
        28        1.9998           -0.6335709             -17.2403
        29        1.9998           -0.6291119             -17.1190
        30        1.9996           -0.6206098             -16.8877
        31        1.9994           -0.6143823             -16.7182
        32        1.9992           -0.6095842             -16.5876
        33        1.9990           -0.6068563             -16.5134
        34        1.9985           -0.6003363             -16.3360
        35        1.9847           -0.5632256             -15.3261
        36        1.8621           -0.5273712             -14.3505
        37        1.8027           -0.5211788             -14.1820 (HOMO)
        38        0.2560           -0.4557671             -12.4021 (LUMO)
        39        0.0716           -0.4339940             -11.8096
        40        0.0240           -0.4162944             -11.3279
        41        0.0034           -0.3853918             -10.4870
        42        0.0005           -0.3536661              -9.6237
        43        0.0000           -0.3075096              -8.3678
        44        0.0000           -0.2626195              -7.1462
        45                         -0.1585227              -4.3136
        46                         -0.1158564              -3.1526
        47                         -0.0883913              -2.4052
        48                         -0.0435184              -1.1842
       ...                                ...                  ...
        67                          1.0116901              27.5295
      -------------------------------------------------------------
                  HL-Gap            0.0654117 Eh            1.7799 eV

     #   Z          covCN         q      C6AA      α(0)
     1   6 C        3.704    -0.068    21.968     6.701
     2   7 N        2.738    -0.031    21.842     6.941
     3   6 C        2.762     0.124    25.262     8.231
     4   7 N        1.772    -0.267    27.753     7.801
     5   6 C        1.908     0.085    28.976     8.693
     6   6 C        2.885    -0.004    28.122     8.694
     7   6 C        2.745     0.261    22.607     7.785
     8   8 O        0.857    -0.296    19.708     5.952
     9   7 N        2.711    -0.048    22.163     6.992
    10   6 C        3.711    -0.067    21.925     6.692
    11   6 C        1.798     0.308    24.269     7.962
    12   8 O        0.856    -0.137    17.074     5.540
    13   7 N        1.821    -0.005    22.044     6.957
    14   6 C        3.686    -0.056    21.790     6.683
    15   1 H        0.925     0.070     2.080     2.256
    16   1 H        0.925     0.089     1.893     2.151
    17   1 H        0.924     0.097     1.815     2.107
    18   1 H        0.925     0.099     1.798     2.097
    19   1 H        0.925     0.137     1.481     1.903
    20   1 H        0.925     0.099     1.794     2.094
    21   1 H        0.925     0.102     1.769     2.080
    22   1 H        0.924     0.127     1.555     1.950
    23   1 H        0.924     0.102     1.769     2.080
    24   1 H        0.924     0.122     1.600     1.978
    25   1 H        0.860     0.159     1.344     1.816

Wiberg/Mayer (AO) data.
largest (>0.10) Wiberg bond orders for each atom

     #   Z sym  total        # sym  WBO       # sym  WBO       # sym  WBO
 ---------------------------------------------------------------------------
     1   6 C    3.935 --     2 N    0.988    15 H    0.976    16 H    0.969
                            17 H    0.958
     2   7 N    3.412 --     3 C    1.181     6 C    0.998     1 C    0.988
                             4 N    0.139
     3   6 C    3.949 --     4 N    1.788     2 N    1.181    18 H    0.925
     4   7 N    2.907 --     3 C    1.788    25 H    0.934     2 N    0.139
     5   6 C    3.882 --    13 N    2.230     6 C    1.393
     6   6 C    3.865 --     5 C    1.393     7 C    1.170     2 N    0.998
                            13 N    0.114
     7   6 C    3.854 --     8 O    1.788     6 C    1.170     9 N    0.742
     8   8 O    2.165 --     7 C    1.788
     9   7 N    3.567 --    11 C    1.567    10 C    0.915     7 C    0.742
                            12 O    0.222
    10   6 C    3.876 --    20 H    0.972    21 H    0.971    19 H    0.954
                             9 N    0.915
    11   6 C    3.708 --    12 O    2.033     9 N    1.567
    12   8 O    2.350 --    11 C    2.033     9 N    0.222
    13   7 N    3.537 --     5 C    2.230    14 C    1.040     6 C    0.114
    14   6 C    3.928 --    13 N    1.040    23 H    0.949    24 H    0.939
                            22 H    0.934
    15   1 H    0.990 --     1 C    0.976
    16   1 H    0.987 --     1 C    0.969
    17   1 H    0.975 --     1 C    0.958
    18   1 H    0.976 --     3 C    0.925
    19   1 H    0.979 --    10 C    0.954
    20   1 H    0.989 --    10 C    0.972
    21   1 H    0.989 --    10 C    0.971
    22   1 H    0.979 --    14 C    0.934
    23   1 H    0.979 --    14 C    0.949
    24   1 H    0.979 --    14 C    0.939
    25   1 H    0.965 --     4 N    0.934
 ---------------------------------------------------------------------------

molecular dipole:
                 x           y           z       tot (Debye)
 q only:       -1.215      -0.607       0.430
   full:       -1.578      -0.493       0.561       4.438

           -------------------------------------------------
          | TOTAL ENERGY              -42.074057949340 Eh   |
          | GRADIENT NORM               0.002390145156 Eh/α |
          | HOMO-LUMO GAP               1.779944291713 eV   |
           -------------------------------------------------

 * finished run on 2024/06/05 at 20:00:10.711
