   * xtb version 6.6.1 (8d0f1dd) compiled by 'conda@1efc2f54142f' on 2023-08-01
          program call               : xtb xtbopt.xyz --opt crude --input .xc2 --gfn2

   ID    Z sym.   atoms
    1    6 C      1, 3, 5-7, 10, 11, 14
    2    7 N      2, 4, 9, 13
    3    8 O      8, 12
    4    1 H      15-25
########################################################################
[WARNING] Please study the warnings concerning your input carefully
-1- readin_getIntValue: could not parse ''
########################################################################

          :  Hamiltonian                  GFN2-xTB          :
 * total energy  :   -42.0740680 Eh     change       -0.4760636E-12 Eh
 * total energy  :   -42.0758617 Eh     change       -0.1793734E-02 Eh
 * total energy  :   -42.0770661 Eh     change       -0.1204339E-02 Eh
 * total energy  :   -42.0780835 Eh     change       -0.1017465E-02 Eh
 * total energy  :   -42.0784556 Eh     change       -0.3720874E-03 Eh
   *** GEOMETRY OPTIMIZATION CONVERGED AFTER 5 ITERATIONS ***

 final structure:
================
25
 xtb: 6.6.1 (8d0f1dd)
C            2.66925775942486        0.85264971735057        0.95370094096286
N            1.99374316935540       -0.12900017187003        0.13295244791609
C            2.70144165398589       -1.03300481596149       -0.59917901431644
N            2.29108255638208       -1.88908700368030       -1.42354962465641
C           -0.17463844640236       -1.12652786486290        0.18359271764983
C            0.58145424777399       -0.01867537251914        0.02738458837612
C            0.08553702574273        1.27088717979416       -0.30500013328978
O            0.66617897750239        2.23937833998963       -0.68817345676521
N           -1.43152984075932        1.43835701557579       -0.09662672055965
C           -1.99530077359973        2.68268706945627       -0.63790464450484
C           -2.09510328324428        0.67637363301782        0.64028596963803
O           -2.63941983949634       -0.06159711788173        1.33888815658992
N           -0.74991564266811       -2.11196204464845        0.48639269264884
C           -1.37665027833673       -3.33131993532537        0.25517991741366
H            2.07157126233096        1.06253467694101        1.84107061027047
H            3.63605623424725        0.46307847710156        1.26435293699757
H            2.82246306405638        1.78640540230218        0.40586491314826
H            3.77204096962792       -0.99720235855550       -0.41906452090810
H           -1.20851009937875        3.15356111497126       -1.22835671369891
H           -2.85602598705762        2.46171040485930       -1.26484276170308
H           -2.28444099387645        3.35445317365528        0.16922308900913
H           -0.83265438650507       -4.10023531930061        0.80769209783379
H           -1.40634104916104       -3.59088280476184       -0.80550534463787
H           -2.38954062891199       -3.27859680025875        0.65981069639839
H            1.30967584310496       -1.95574605382025       -1.66701722192068

          :  Hamiltonian                  GFN2-xTB          :
         :: total energy             -42.078455627308 Eh    ::
         :: gradient norm              0.007650477015 Eh/a0 ::
         :: HOMO-LUMO gap              1.729625018487 eV    ::
         :: SCC energy               -42.690342292452 Eh    ::
         :: -> dispersion             -0.021228657442 Eh    ::
         :: repulsion energy           0.611679941841 Eh    ::

    * Orbital Energies and Occupations

         #    Occupation            Energy/Eh            Energy/eV
      -------------------------------------------------------------
         1        2.0000           -0.9486379             -25.8138
       ...           ...                  ...                  ...
        25        2.0000           -0.6764904             -18.4082
        26        2.0000           -0.6653148             -18.1041
        27        1.9998           -0.6358349             -17.3019
        28        1.9998           -0.6342005             -17.2575
        29        1.9997           -0.6294638             -17.1286
        30        1.9996           -0.6211807             -16.9032
        31        1.9994           -0.6159662             -16.7613
        32        1.9992           -0.6118347             -16.6489
        33        1.9991           -0.6106560             -16.6168
        34        1.9983           -0.5998356             -16.3224
        35        1.9833           -0.5633960             -15.3308
        36        1.8544           -0.5280410             -14.3687
        37        1.7999           -0.5225356             -14.2189 (HOMO)
        38        0.2794           -0.4589730             -12.4893 (LUMO)
        39        0.0662           -0.4343190             -11.8184
        40        0.0183           -0.4135690             -11.2538
        41        0.0032           -0.3860381             -10.5046
        42        0.0004           -0.3546023              -9.6492
        43        0.0000           -0.3058844              -8.3235
        44        0.0000           -0.2457132              -6.6862
        45                         -0.1581856              -4.3044
        46                         -0.1135650              -3.0903
        47                         -0.0799037              -2.1743
        48                         -0.0416100              -1.1323
       ...                                ...                  ...
        67                          1.0057323              27.3674
      -------------------------------------------------------------
                  HL-Gap            0.0635625 Eh            1.7296 eV

     #   Z          covCN         q      C6AA      α(0)
     1   6 C        3.699    -0.069    21.983     6.705
     2   7 N        2.743    -0.026    21.750     6.926
     3   6 C        2.765     0.125    25.231     8.226
     4   7 N        1.774    -0.273    27.891     7.821
     5   6 C        1.909     0.082    29.053     8.705
     6   6 C        2.892    -0.009    28.248     8.714
     7   6 C        2.757     0.262    22.582     7.782
     8   8 O        0.857    -0.301    19.792     5.965
     9   7 N        2.717    -0.040    22.024     6.970
    10   6 C        3.704    -0.068    21.958     6.700
    11   6 C        1.796     0.305    24.322     7.970
    12   8 O        0.856    -0.140    17.117     5.547
    13   7 N        1.821    -0.005    22.052     6.958
    14   6 C        3.685    -0.056    21.789     6.683
    15   1 H        0.924     0.074     2.046     2.237
    16   1 H        0.925     0.090     1.878     2.143
    17   1 H        0.924     0.098     1.803     2.100
    18   1 H        0.925     0.099     1.796     2.096
    19   1 H        0.924     0.137     1.481     1.903
    20   1 H        0.925     0.101     1.778     2.085
    21   1 H        0.925     0.103     1.758     2.074
    22   1 H        0.924     0.128     1.547     1.945
    23   1 H        0.924     0.103     1.761     2.075
    24   1 H        0.924     0.122     1.594     1.975
    25   1 H        0.860     0.157     1.354     1.823

Wiberg/Mayer (AO) data.
largest (>0.10) Wiberg bond orders for each atom

     #   Z sym  total        # sym  WBO       # sym  WBO       # sym  WBO
 ---------------------------------------------------------------------------
     1   6 C    3.933 --     2 N    0.989    15 H    0.975    16 H    0.969
                            17 H    0.956
     2   7 N    3.419 --     3 C    1.189     6 C    1.002     1 C    0.989
                             4 N    0.137
     3   6 C    3.949 --     4 N    1.777     2 N    1.189    18 H    0.928
     4   7 N    2.897 --     3 C    1.777    25 H    0.931     2 N    0.137
     5   6 C    3.879 --    13 N    2.221     6 C    1.382
     6   6 C    3.861 --     5 C    1.382     7 C    1.169     2 N    1.002
                            13 N    0.112
     7   6 C    3.864 --     8 O    1.778     6 C    1.169     9 N    0.767
     8   8 O    2.157 --     7 C    1.778
     9   7 N    3.576 --    11 C    1.555    10 C    0.916     7 C    0.767
                            12 O    0.217
    10   6 C    3.874 --    20 H    0.971    21 H    0.970    19 H    0.955
                             9 N    0.916
    11   6 C    3.703 --    12 O    2.026     9 N    1.555
    12   8 O    2.341 --    11 C    2.026     9 N    0.217
    13   7 N    3.530 --     5 C    2.221    14 C    1.042     6 C    0.112
    14   6 C    3.928 --    13 N    1.042    23 H    0.947    24 H    0.939
                            22 H    0.932
    15   1 H    0.988 --     1 C    0.975
    16   1 H    0.987 --     1 C    0.969
    17   1 H    0.974 --     1 C    0.956
    18   1 H    0.978 --     3 C    0.928
    19   1 H    0.979 --    10 C    0.955
    20   1 H    0.989 --    10 C    0.971
    21   1 H    0.989 --    10 C    0.970
    22   1 H    0.978 --    14 C    0.932
    23   1 H    0.979 --    14 C    0.947
    24   1 H    0.978 --    14 C    0.939
    25   1 H    0.966 --     4 N    0.931
 ---------------------------------------------------------------------------

molecular dipole:
                 x           y           z       tot (Debye)
 q only:       -1.153      -0.586       0.440
   full:       -1.466      -0.460       0.573       4.168

           -------------------------------------------------
          | TOTAL ENERGY              -42.078455627308 Eh   |
          | GRADIENT NORM               0.007650477015 Eh/α |
          | HOMO-LUMO GAP               1.729625018487 eV   |
           -------------------------------------------------

 * finished run on 2024/06/05 at 20:00:10.953
