   * xtb version 6.6.1 (8d0f1dd) compiled by 'conda@1efc2f54142f' on 2023-08-01
          program call               : xtb struc.xyz --opt loose --input .xc1 --gfn2

   ID    Z sym.   atoms
    1    7 N      1, 17
    2    6 C      2-6, 8, 9, 11-16, 18-23, 25, 26, 28-33
    3    8 O      7, 10, 24, 27
    4    1 H      34-72
constraining bond 65 69 to    4.2800000 Å, actual value:    3.0486548 Å

          :  Hamiltonian                  GFN2-xTB          :
 * total energy  :   -99.1334066 Eh     change       -0.4035485E-08 Eh
 * total energy  :   -99.2604868 Eh     change       -0.1270802E+00 Eh
 * total energy  :   -99.3008508 Eh     change       -0.4036406E-01 Eh
 * total energy  :   -99.3052518 Eh     change       -0.4400988E-02 Eh
 * total energy  :   -99.3057070 Eh     change       -0.4551663E-03 Eh
 * total energy  :   -99.3062135 Eh     change       -0.5065587E-03 Eh
 * total energy  :   -99.3063944 Eh     change       -0.1808514E-03 Eh
 * total energy  :   -99.3066222 Eh     change       -0.2278078E-03 Eh
 * total energy  :   -99.3067876 Eh     change       -0.1653595E-03 Eh
 * total energy  :   -99.3068970 Eh     change       -0.1094466E-03 Eh
 * total energy  :   -99.3069748 Eh     change       -0.7784568E-04 Eh
 * total energy  :   -99.3070518 Eh     change       -0.7691838E-04 Eh
 * total energy  :   -99.3071169 Eh     change       -0.6518086E-04 Eh
 * total energy  :   -99.3071561 Eh     change       -0.3912281E-04 Eh
   *** GEOMETRY OPTIMIZATION CONVERGED AFTER 14 ITERATIONS ***

 final structure:
================
72
 xtb: 6.6.1 (8d0f1dd)
N           -1.89741965661982        2.70940522454089        2.24065760666213
C           -1.84778542053862        2.09661234587134        1.15534052735822
C           -3.00694398339620        1.89702188401220        0.21434688474663
C           -3.47991152191077        0.45187044258179        0.29512618986378
C           -4.40823961060766       -0.03476450389024       -0.62947140115069
C           -4.88713163613108       -1.33271201224868       -0.56429769714934
O           -5.80107354536015       -1.87020809539168       -1.39924261335158
C           -6.46636648123212       -1.04366325066413       -2.32567188931338
C           -4.39987728165251       -2.20815143828045        0.44302983121846
O           -4.90602744503758       -3.45693389624018        0.42120157089303
C           -4.51663450880063       -4.37074030829109        1.41959575113852
C           -3.47074511307131       -1.72454108539082        1.35001010503769
C           -3.02606621567835       -0.40991517703390        1.28164539509594
C           -2.45947011431230        2.18915946430676       -1.20714591749501
C           -1.50169115152572        1.11303385848547       -1.75437296089656
C           -0.17203482693554        1.11212437976309       -1.10071965947756
N            0.48639395966228        0.03324920419558       -0.68964541237451
C            1.86225657974055        0.13300723275719       -0.26204142387887
C            2.83727651970740       -0.32860192503573       -1.36206972385994
C            4.25688322007581       -0.12732279769845       -0.91037662545044
C            4.89959599672518        1.08096028764507       -1.12584454071280
C            6.20166997834629        1.28018074051416       -0.69406635805293
C            6.88754581686347        0.27288996727372       -0.03078387287788
O            8.15006957566528        0.35299334272584        0.42847232463945
C            8.88276700861698        1.53880275272193        0.22176062419925
C            6.23473899220724       -0.96977185702471        0.19937844853786
O            6.97454593226357       -1.89353647906043        0.84450478847223
C            6.42815694026988       -3.16730485572907        1.08947803475518
C            4.93184399138143       -1.14472321253512       -0.24008084118499
C           -0.11347391858910       -1.27927135483134       -0.69724308017005
C           -4.20591557970511        2.84315792852862        0.52266520067439
C           -4.81340113797954        2.56068418574068        1.89284775649908
C           -3.67597151727004        4.41520466244031        0.57127128248587
H           -4.77308785724479        0.61072476477633       -1.41252587654570
H           -6.96332686656903       -0.20437828355666       -1.82993669287042
H           -7.21637944201668       -1.67787589848368       -2.79464947516716
H           -5.78502641465685       -0.66557867978623       -3.09494462846355
H           -4.75892094657499       -4.00017720826717        2.41994943448401
H           -5.08551185809750       -5.27725491545593        1.22304232509337
H           -3.44657021040027       -4.59483538735018        1.36171011610907
H           -3.09257109262186       -2.36141625757825        2.13314748065347
H           -2.33276085435040       -0.05966158043102        2.03040683416442
H           -3.30198312434432        2.27507648393656       -1.89224347643885
H           -1.94701348708746        3.15146840440978       -1.19631889722561
H           -1.97886922177080        0.13630700496315       -1.69717873600215
H           -1.34231709262251        1.34538082265852       -2.81556306929017
H           -0.91756396490144        1.65490825835777        0.74172733211733
H            0.38181832656752        2.03993138776445       -1.10724957199076
H            2.00625319317406       -0.47972106176696        0.63208315408997
H            2.08676222786155        1.16998044812609       -0.00372098844290
H            2.64871414399459        0.25688526542196       -2.26359627364196
H            2.65990998696353       -1.38033146217543       -1.58960023511196
H            4.39184224716717        1.87786722960154       -1.64772201907090
H            6.67830438507662        2.22736930025799       -0.88602398609360
H            8.41263827874869        2.39226758974148        0.71977425079831
H            9.00010532556436        1.75611048936255       -0.84409694674318
H            9.86102290181481        1.35803818363761        0.66293490463698
H            7.21201613797618       -3.72905380031019        1.59375167934848
H            5.55001831778536       -3.10901080381808        1.74063283002726
H            6.16126665973689       -3.67574038266271        0.15776610175048
H            4.43144174487564       -2.08653877980625       -0.07733964078474
H           -0.26281982696156       -1.64017268168964       -1.71707271329699
H           -1.07923056641869       -1.26050195262176       -0.18575825423718
H            0.53986559588283       -1.97453267936581       -0.17631851810642
H           -5.14280833581779        2.31867936558150       -0.28883933304278
H           -4.09973629480626        2.80047875307250        2.67523800321064
H           -5.10662302729876        1.51714401382250        1.98959401902867
H           -5.69783060489229        3.17748357314415        2.03017790979134
H           -2.75343890259889        4.94793949954783        1.28200967702259
H           -3.41511584253347        4.71343795823240       -0.44177115503500
H           -4.55036185839445        4.99193587702686        0.86094267630533
H           -1.04316002837991        2.80331100942379        2.78058829668888

          :  Hamiltonian                  GFN2-xTB          :
         :: total energy             -99.307156068990 Eh    ::
         :: gradient norm              0.001916852275 Eh/a0 ::
         :: HOMO-LUMO gap              1.682134908535 eV    ::
         :: SCC energy              -100.677087391531 Eh    ::
         :: -> dispersion             -0.075103654014 Eh    ::
         :: repulsion energy           1.340773693212 Eh    ::

    * Orbital Energies and Occupations

         #    Occupation            Energy/Eh            Energy/eV
      -------------------------------------------------------------
         1        2.0000           -0.8085700             -22.0023
       ...           ...                  ...                  ...
        78        1.9984           -0.5286475             -14.3852
        79        1.9983           -0.5281123             -14.3707
        80        1.9979           -0.5247975             -14.2805
        81        1.9972           -0.5201257             -14.1533
        82        1.9971           -0.5194171             -14.1341
        83        1.9967           -0.5173923             -14.0790
        84        1.9952           -0.5114689             -13.9178
        85        1.9882           -0.4970461             -13.5253
        86        1.9817           -0.4900777             -13.3357
        87        1.9789           -0.4878027             -13.2738
        88        1.9364           -0.4699731             -12.7886
        89        1.8784           -0.4592171             -12.4959
        90        1.8460           -0.4552014             -12.3867 (HOMO)
        91        0.3893           -0.3933840             -10.7045 (LUMO)
        92        0.0161           -0.3396118              -9.2413
        93        0.0038           -0.3168513              -8.6220
        94        0.0032           -0.3138105              -8.5392
        95        0.0028           -0.3117240              -8.4824
        96        0.0024           -0.3094172              -8.4197
        97        0.0000           -0.2241255              -6.0988
        98        0.0000           -0.1911827              -5.2023
        99        0.0000           -0.1868865              -5.0854
       100                         -0.1362675              -3.7080
       101                         -0.1134737              -3.0878
       ...                                ...                  ...
       171                          0.5770336              15.7019
      -------------------------------------------------------------
                  HL-Gap            0.0618173 Eh            1.6821 eV

     #   Z          covCN         q      C6AA      α(0)
     1   7 N        1.773    -0.264    27.689     7.792
     2   6 C        2.826     0.100    25.781     8.320
     3   6 C        3.906     0.006    20.417     6.423
     4   6 C        2.972     0.001    28.004     8.680
     5   6 C        2.920    -0.079    29.966     8.977
     6   6 C        2.861     0.129    25.163     8.222
     7   8 O        1.706    -0.231    17.829     5.701
     8   6 C        3.643     0.028    20.438     6.499
     9   6 C        2.864     0.129    25.179     8.225
    10   8 O        1.706    -0.228    17.788     5.694
    11   6 C        3.646     0.027    20.455     6.500
    12   6 C        2.914    -0.075    29.866     8.962
    13   6 C        2.922    -0.054    29.338     8.882
    14   6 C        3.812    -0.066    21.756     6.639
    15   6 C        3.802    -0.069    21.817     6.650
    16   6 C        2.843     0.007    27.846     8.648
    17   7 N        2.729     0.009    21.108     6.824
    18   6 C        3.755    -0.016    20.916     6.521
    19   6 C        3.808    -0.070    21.842     6.653
    20   6 C        2.969    -0.000    28.036     8.685
    21   6 C        2.922    -0.049    29.215     8.864
    22   6 C        2.914    -0.068    29.683     8.934
    23   6 C        2.865     0.133    25.082     8.209
    24   8 O        1.706    -0.222    17.686     5.678
    25   6 C        3.645     0.025    20.487     6.505
    26   6 C        2.863     0.133    25.090     8.210
    27   8 O        1.706    -0.225    17.730     5.685
    28   6 C        3.645     0.027    20.452     6.500
    29   6 C        2.919    -0.079    29.987     8.980
    30   6 C        3.699    -0.070    22.017     6.711
    31   6 C        3.575     0.009    21.183     6.690
    32   6 C        3.753    -0.120    22.848     6.816
    33   6 C        3.599    -0.096    22.973     6.934
    34   1 H        0.926     0.054     2.272     2.357
    35   1 H        0.924     0.053     2.282     2.363
    36   1 H        0.925     0.081     1.969     2.194
    37   1 H        0.924     0.048     2.351     2.398
    38   1 H        0.924     0.055     2.261     2.352
    39   1 H        0.925     0.081     1.966     2.193
    40   1 H        0.924     0.048     2.347     2.396
    41   1 H        0.926     0.052     2.296     2.370
    42   1 H        0.926     0.038     2.471     2.458
    43   1 H        0.925     0.061     2.193     2.316
    44   1 H        0.924     0.054     2.270     2.356
    45   1 H        0.925     0.065     2.137     2.286
    46   1 H        0.923     0.079     1.985     2.203
    47   1 H        0.922     0.011     2.875     2.652
    48   1 H        0.926     0.069     2.096     2.264
    49   1 H        0.924     0.067     2.120     2.277
    50   1 H        0.924     0.067     2.123     2.279
    51   1 H        0.924     0.055     2.257     2.349
    52   1 H        0.924     0.056     2.252     2.347
    53   1 H        0.926     0.045     2.387     2.416
    54   1 H        0.926     0.058     2.219     2.329
    55   1 H        0.924     0.054     2.270     2.356
    56   1 H        0.924     0.056     2.249     2.345
    57   1 H        0.925     0.082     1.956     2.187
    58   1 H        0.925     0.082     1.961     2.190
    59   1 H        0.924     0.048     2.339     2.392
    60   1 H        0.924     0.052     2.291     2.367
    61   1 H        0.926     0.047     2.358     2.401
    62   1 H        0.924     0.076     2.022     2.224
    63   1 H        0.924     0.079     1.986     2.204
    64   1 H        0.925     0.079     1.987     2.204
    65   1 H        0.675     0.016     3.057     2.793
    66   1 H        0.925     0.075     2.030     2.228
    67   1 H        0.925     0.035     2.511     2.478
    68   1 H        0.925     0.053     2.285     2.364
    69   1 H        0.801     0.039     2.504     2.486
    70   1 H        0.925     0.034     2.524     2.484
    71   1 H        0.925     0.055     2.264     2.353
    72   1 H        0.860     0.158     1.346     1.817

Wiberg/Mayer (AO) data.
largest (>0.10) Wiberg bond orders for each atom

     #   Z sym  total        # sym  WBO       # sym  WBO       # sym  WBO
 ---------------------------------------------------------------------------
     1   7 N    3.048 --     2 C    1.960    72 H    0.941
     2   6 C    3.923 --     1 N    1.960     3 C    0.990    47 H    0.888
     3   6 C    3.975 --     2 C    0.990     4 C    0.967    14 C    0.959
                            31 C    0.949
     4   6 C    3.951 --    13 C    1.415     5 C    1.366     3 C    0.967
     5   6 C    3.963 --     6 C    1.400     4 C    1.366    34 H    0.952
     6   6 C    3.907 --     5 C    1.400     9 C    1.223     7 O    1.098
     7   8 O    2.254 --     6 C    1.098     8 C    0.978
     8   6 C    3.932 --     7 O    0.978    36 H    0.977    35 H    0.974
                            37 H    0.973
     9   6 C    3.904 --    12 C    1.392     6 C    1.223    10 O    1.102
    10   8 O    2.255 --     9 C    1.102    11 C    0.978
    11   6 C    3.932 --    10 O    0.978    39 H    0.977    40 H    0.974
                            38 H    0.973
    12   6 C    3.963 --    13 C    1.402     9 C    1.392    41 H    0.964
    13   6 C    3.956 --     4 C    1.415    12 C    1.402    42 H    0.962
    14   6 C    3.972 --    15 C    0.980    44 H    0.972    43 H    0.969
                             3 C    0.959
    15   6 C    3.987 --    16 C    1.058    14 C    0.980    45 H    0.963
                            46 H    0.929
    16   6 C    3.601 --    17 N    1.394    15 C    1.058    48 H    0.957
    17   7 N    3.478 --    16 C    1.394    30 C    0.998    18 C    0.988
    18   6 C    3.956 --    17 N    0.988    50 H    0.968    19 C    0.967
                            49 H    0.964
    19   6 C    3.976 --    20 C    1.008    52 H    0.972    51 H    0.972
                            18 C    0.967
    20   6 C    3.945 --    21 C    1.409    29 C    1.380    19 C    1.008
    21   6 C    3.950 --    22 C    1.417    20 C    1.409    53 H    0.968
    22   6 C    3.960 --    21 C    1.417    23 C    1.384    54 H    0.963
    23   6 C    3.896 --    22 C    1.384    26 C    1.220    24 O    1.110
    24   8 O    2.255 --    23 C    1.110    25 C    0.976
    25   6 C    3.928 --    57 H    0.977    24 O    0.976    55 H    0.973
                            56 H    0.973
    26   6 C    3.899 --    29 C    1.395    23 C    1.220    27 O    1.103
    27   8 O    2.254 --    26 C    1.103    28 C    0.979
    28   6 C    3.932 --    27 O    0.979    58 H    0.977    59 H    0.973
                            60 H    0.973
    29   6 C    3.959 --    26 C    1.395    20 C    1.380    61 H    0.963
    30   6 C    3.957 --    17 N    0.998    64 H    0.978    62 H    0.966
                            63 H    0.960
    31   6 C    3.945 --    32 C    1.020    33 C    0.980     3 C    0.949
                            65 H    0.925
    32   6 C    3.976 --    31 C    1.020    67 H    0.980    68 H    0.979
                            66 H    0.967
    33   6 C    3.968 --    70 H    0.987    71 H    0.985    31 C    0.980
                            69 H    0.971
    34   1 H    0.996 --     5 C    0.952
    35   1 H    0.994 --     8 C    0.974
    36   1 H    0.993 --     8 C    0.977
    37   1 H    0.994 --     8 C    0.973
    38   1 H    0.993 --    11 C    0.973
    39   1 H    0.993 --    11 C    0.977
    40   1 H    0.994 --    11 C    0.974
    41   1 H    0.996 --    12 C    0.964
    42   1 H    0.998 --    13 C    0.962
    43   1 H    0.995 --    14 C    0.969
    44   1 H    0.996 --    14 C    0.972
    45   1 H    0.995 --    15 C    0.963
    46   1 H    0.971 --    15 C    0.929
    47   1 H    0.987 --     2 C    0.888
    48   1 H    0.995 --    16 C    0.957
    49   1 H    0.991 --    18 C    0.964
    50   1 H    0.994 --    18 C    0.968
    51   1 H    0.996 --    19 C    0.972
    52   1 H    0.996 --    19 C    0.972
    53   1 H    0.997 --    21 C    0.968
    54   1 H    0.995 --    22 C    0.963
    55   1 H    0.992 --    25 C    0.973
    56   1 H    0.992 --    25 C    0.973
    57   1 H    0.992 --    25 C    0.977
    58   1 H    0.993 --    28 C    0.977
    59   1 H    0.993 --    28 C    0.973
    60   1 H    0.993 --    28 C    0.973
    61   1 H    0.997 --    29 C    0.963
    62   1 H    0.985 --    30 C    0.966
    63   1 H    0.987 --    30 C    0.960
    64   1 H    0.993 --    30 C    0.978
    65   1 H    0.989 --    31 C    0.925
    66   1 H    0.989 --    32 C    0.967
    67   1 H    0.996 --    32 C    0.980
    68   1 H    0.993 --    32 C    0.979
    69   1 H    0.995 --    33 C    0.971
    70   1 H    0.997 --    33 C    0.987
    71   1 H    0.994 --    33 C    0.985
    72   1 H    0.970 --     1 N    0.941
 ---------------------------------------------------------------------------

molecular dipole:
                 x           y           z       tot (Debye)
 q only:        0.588       0.048      -0.749
   full:        0.877       0.047      -0.925       3.241

           -------------------------------------------------
          | TOTAL ENERGY              -99.307156068990 Eh   |
          | GRADIENT NORM               0.001916852275 Eh/α |
          | HOMO-LUMO GAP               1.682134908535 eV   |
           -------------------------------------------------

 * finished run on 2024/04/06 at 11:15:15.402
