   * xtb version 6.6.1 (8d0f1dd) compiled by 'conda@1efc2f54142f' on 2023-08-01
          program call               : xtb xtbopt.xyz --opt crude --input .xc2 --gfn2

   ID    Z sym.   atoms
    1    7 N      1, 17
    2    6 C      2-6, 8, 9, 11-16, 18-23, 25, 26, 28-33
    3    8 O      7, 10, 24, 27
    4    1 H      34-72
########################################################################
[WARNING] Please study the warnings concerning your input carefully
-1- readin_getIntValue: could not parse ''
########################################################################

          :  Hamiltonian                  GFN2-xTB          :
 * total energy  :   -99.3350795 Eh     change       -0.5400125E-12 Eh
 * total energy  :   -99.3851694 Eh     change       -0.5008988E-01 Eh
 * total energy  :   -99.3980480 Eh     change       -0.1287861E-01 Eh
 * total energy  :   -99.4048028 Eh     change       -0.6754792E-02 Eh
 * total energy  :   -99.4062507 Eh     change       -0.1447936E-02 Eh
 * total energy  :   -99.4064016 Eh     change       -0.1508583E-03 Eh
   *** GEOMETRY OPTIMIZATION CONVERGED AFTER 6 ITERATIONS ***

 final structure:
================
72
 xtb: 6.6.1 (8d0f1dd)
N           -1.86961190505041        2.72146882774520        2.24718505156224
C           -1.82594303139110        2.09643269944483        1.16744131377202
C           -2.98926848423061        1.90975473289677        0.23255501276407
C           -3.47865887366614        0.46929643331579        0.31494462167550
C           -4.41479405775556       -0.00743074877117       -0.60544213557706
C           -4.88418780686981       -1.31018910353140       -0.55172066609971
O           -5.79329188010027       -1.84981557167298       -1.38983336771892
C           -6.45272349705005       -1.02829831470951       -2.32428631747755
C           -4.39445857172672       -2.19250300100951        0.44926808853140
O           -4.89855488635312       -3.44230218463770        0.41910252745011
C           -4.51651433217617       -4.36035983830738        1.41685844176011
C           -3.46721264782843       -1.71277573245604        1.35990720414058
C           -3.02067289624337       -0.39885422588826        1.29451114406467
C           -2.44973843012261        2.19568886811443       -1.19252336763103
C           -1.50194070179197        1.11416738234554       -1.74360623363874
C           -0.16903689002641        1.11005292986332       -1.09844367344054
N            0.48957731430116        0.02977039251113       -0.69353398551131
C            1.86564123726332        0.12966595883924       -0.26727635662374
C            2.83941833776207       -0.33237571624615       -1.36784232999023
C            4.25846012617822       -0.12986335423933       -0.91535843603584
C            4.89992922901589        1.07945250548127       -1.12875693330286
C            6.20098624337695        1.27978741973034       -0.69442808856322
C            6.88701364329517        0.27234672133471       -0.03143707180805
O            8.14911551422700        0.35261039584040        0.42854442425472
C            8.88224738730633        1.53822092029603        0.22229816266100
C            6.23475357707987       -0.97087388897866        0.19784428179111
O            6.97362762883213       -1.89384919574977        0.84492427441899
C            6.42745841064394       -3.16793533188537        1.08878328935286
C            4.93278779450656       -1.14676472669013       -0.24377440088795
C           -0.11163893801477       -1.28201908627406       -0.70254447272977
C           -4.17981497026881        2.86474954352803        0.54670741183059
C           -4.80679745658865        2.55313969407776        1.90390227872685
C           -3.78484949146167        4.33575179736686        0.49329889002317
H           -4.79383723787795        0.65136923330408       -1.36964695454420
H           -6.95384443727008       -0.18781418867898       -1.83518044625242
H           -7.19762668602242       -1.66602741463301       -2.79674620865777
H           -5.76496622639489       -0.65272022918390       -3.08891700296597
H           -4.76727129886103       -3.99429070545415        2.41679307518365
H           -5.08334609726531       -5.26659660282597        1.21244740919849
H           -3.44604060574270       -4.58451173361006        1.36701844735173
H           -3.09050694660615       -2.35247613288572        2.14145458610567
H           -2.32376539037149       -0.05429121790376        2.04267545125836
H           -3.29409063071452        2.28211515024380       -1.87524139896001
H           -1.93065645422373        3.15470738877093       -1.18791973300290
H           -1.98358939261178        0.13992516951812       -1.68187260607227
H           -1.34787437565609        1.34516658269119       -2.80562148083688
H           -0.90272162446207        1.63858547917606        0.75851224417103
H            0.38593481314958        2.03717652539292       -1.10367030099057
H            2.00996883200651       -0.48207235751990        0.62734196017005
H            2.09048630638776        1.16697213066435       -0.01036567577365
H            2.65040996085479        0.25251777949594       -2.26966127714871
H            2.66246467031168       -1.38432960305251       -1.59444529750352
H            4.39188818253658        1.87606039467052       -1.65084206723951
H            6.67647462814132        2.22808735400148       -0.88357039777623
H            8.41230152071653        2.39176101591455        0.72031333194983
H            9.00008185844221        1.75566571584000       -0.84347414431446
H            9.86025087139770        1.35694904581199        0.66382822164475
H            7.21097915963104       -3.72965245815195        1.59359317173304
H            5.54863687609572       -3.11034714498645        1.73911782744337
H            6.16164506223439       -3.67595696441282        0.15656063683321
H            4.43237933535774       -2.08865527322443       -0.08166828374910
H           -0.26482118584870       -1.63955511924099       -1.72301434287576
H           -1.07587554037804       -1.26361435500989       -0.18811215336529
H            0.54287166094494       -1.97920634035163       -0.18584115708325
H           -4.92970475185084        2.69347942533978       -0.22917415201787
H           -4.10485397339451        2.77636553728884        2.70067991353036
H           -5.09625145871704        1.50751991582880        1.97249969706417
H           -5.69449775691751        3.16501936499958        2.04200157114504
H           -2.98096366117891        4.54324321733536        1.18195620479824
H           -3.48233252789793        4.63885747418093       -0.50568679588143
H           -4.63736804990732        4.94581301169917        0.77952404405283
H           -1.01475852610958        2.80275324977334        2.78835034423419

          :  Hamiltonian                  GFN2-xTB          :
         :: total energy             -99.406401586150 Eh    ::
         :: gradient norm              0.007400478673 Eh/a0 ::
         :: HOMO-LUMO gap              1.677593482879 eV    ::
         :: SCC energy              -100.786263717513 Eh    ::
         :: -> dispersion             -0.075056334014 Eh    ::
         :: repulsion energy           1.378618393818 Eh    ::

    * Orbital Energies and Occupations

         #    Occupation            Energy/Eh            Energy/eV
      -------------------------------------------------------------
         1        2.0000           -0.8086967             -22.0058
       ...           ...                  ...                  ...
        78        1.9984           -0.5293018             -14.4030
        79        1.9983           -0.5288028             -14.3895
        80        1.9982           -0.5282380             -14.3741
        81        1.9975           -0.5224972             -14.2179
        82        1.9971           -0.5200093             -14.1502
        83        1.9961           -0.5153467             -14.0233
        84        1.9954           -0.5130484             -13.9608
        85        1.9944           -0.5096679             -13.8688
        86        1.9812           -0.4905448             -13.3484
        87        1.9786           -0.4884553             -13.2915
        88        1.9419           -0.4723274             -12.8527
        89        1.8726           -0.4593248             -12.4989
        90        1.8436           -0.4558238             -12.4036 (HOMO)
        91        0.3873           -0.3941734             -10.7260 (LUMO)
        92        0.0160           -0.3404523              -9.2642
        93        0.0036           -0.3165577              -8.6140
        94        0.0030           -0.3136978              -8.5362
        95        0.0027           -0.3123546              -8.4996
        96        0.0024           -0.3100689              -8.4374
        97        0.0000           -0.1910072              -5.1976
        98        0.0000           -0.1875310              -5.1030
        99                         -0.1367499              -3.7212
       100                         -0.0682623              -1.8575
       101                         -0.0644687              -1.7543
       ...                                ...                  ...
       171                          0.5764806              15.6868
      -------------------------------------------------------------
                  HL-Gap            0.0616504 Eh            1.6776 eV

     #   Z          covCN         q      C6AA      α(0)
     1   7 N        1.773    -0.267    27.747     7.800
     2   6 C        2.826     0.100    25.766     8.318
     3   6 C        3.907     0.006    20.412     6.422
     4   6 C        2.973     0.003    27.958     8.673
     5   6 C        2.920    -0.079    29.979     8.979
     6   6 C        2.861     0.130    25.160     8.222
     7   8 O        1.706    -0.230    17.815     5.699
     8   6 C        3.643     0.028    20.453     6.501
     9   6 C        2.864     0.129    25.178     8.225
    10   8 O        1.706    -0.228    17.786     5.694
    11   6 C        3.645     0.027    20.457     6.501
    12   6 C        2.913    -0.075    29.868     8.962
    13   6 C        2.922    -0.054    29.335     8.882
    14   6 C        3.812    -0.066    21.748     6.638
    15   6 C        3.802    -0.069    21.819     6.650
    16   6 C        2.843     0.008    27.834     8.646
    17   7 N        2.729     0.009    21.098     6.822
    18   6 C        3.756    -0.016    20.916     6.521
    19   6 C        3.808    -0.070    21.842     6.653
    20   6 C        2.969    -0.000    28.033     8.685
    21   6 C        2.922    -0.049    29.213     8.863
    22   6 C        2.914    -0.067    29.680     8.934
    23   6 C        2.865     0.133    25.079     8.209
    24   8 O        1.706    -0.222    17.679     5.677
    25   6 C        3.645     0.025    20.489     6.505
    26   6 C        2.863     0.133    25.087     8.210
    27   8 O        1.706    -0.225    17.725     5.684
    28   6 C        3.645     0.027    20.453     6.500
    29   6 C        2.919    -0.079    29.987     8.980
    30   6 C        3.699    -0.070    22.016     6.710
    31   6 C        3.853    -0.007    20.669     6.466
    32   6 C        3.756    -0.120    22.849     6.816
    33   6 C        3.756    -0.118    22.810     6.810
    34   1 H        0.926     0.052     2.298     2.370
    35   1 H        0.924     0.054     2.274     2.358
    36   1 H        0.925     0.081     1.966     2.193
    37   1 H        0.924     0.048     2.347     2.396
    38   1 H        0.924     0.055     2.258     2.350
    39   1 H        0.925     0.081     1.966     2.193
    40   1 H        0.924     0.048     2.346     2.395
    41   1 H        0.926     0.052     2.298     2.371
    42   1 H        0.926     0.039     2.467     2.456
    43   1 H        0.925     0.060     2.200     2.320
    44   1 H        0.924     0.054     2.273     2.358
    45   1 H        0.925     0.065     2.136     2.285
    46   1 H        0.924     0.080     1.983     2.202
    47   1 H        0.922     0.009     2.901     2.664
    48   1 H        0.926     0.070     2.090     2.261
    49   1 H        0.924     0.067     2.119     2.276
    50   1 H        0.924     0.067     2.120     2.277
    51   1 H        0.924     0.055     2.255     2.348
    52   1 H        0.924     0.056     2.250     2.346
    53   1 H        0.926     0.045     2.384     2.414
    54   1 H        0.926     0.059     2.216     2.328
    55   1 H        0.924     0.054     2.267     2.355
    56   1 H        0.924     0.056     2.247     2.344
    57   1 H        0.925     0.082     1.954     2.186
    58   1 H        0.925     0.082     1.959     2.189
    59   1 H        0.924     0.049     2.337     2.391
    60   1 H        0.924     0.053     2.289     2.366
    61   1 H        0.926     0.047     2.356     2.400
    62   1 H        0.924     0.076     2.019     2.222
    63   1 H        0.924     0.080     1.984     2.203
    64   1 H        0.925     0.079     1.985     2.203
    65   1 H        0.924     0.038     2.472     2.459
    66   1 H        0.925     0.072     2.064     2.247
    67   1 H        0.925     0.036     2.499     2.472
    68   1 H        0.925     0.051     2.313     2.378
    69   1 H        0.926     0.056     2.242     2.342
    70   1 H        0.925     0.034     2.530     2.488
    71   1 H        0.925     0.055     2.256     2.349
    72   1 H        0.860     0.157     1.353     1.822

Wiberg/Mayer (AO) data.
largest (>0.10) Wiberg bond orders for each atom

     #   Z sym  total        # sym  WBO       # sym  WBO       # sym  WBO
 ---------------------------------------------------------------------------
     1   7 N    3.047 --     2 C    1.957    72 H    0.941
     2   6 C    3.924 --     1 N    1.957     3 C    0.995    47 H    0.890
     3   6 C    3.976 --     2 C    0.995     4 C    0.967    14 C    0.960
                            31 C    0.941
     4   6 C    3.949 --    13 C    1.413     5 C    1.370     3 C    0.967
     5   6 C    3.962 --     6 C    1.400     4 C    1.370    34 H    0.958
     6   6 C    3.905 --     5 C    1.400     9 C    1.222     7 O    1.099
     7   8 O    2.254 --     6 C    1.099     8 C    0.978
     8   6 C    3.932 --     7 O    0.978    36 H    0.977    35 H    0.974
                            37 H    0.973
     9   6 C    3.902 --    12 C    1.392     6 C    1.222    10 O    1.102
    10   8 O    2.253 --     9 C    1.102    11 C    0.978
    11   6 C    3.931 --    10 O    0.978    39 H    0.977    40 H    0.974
                            38 H    0.973
    12   6 C    3.963 --    13 C    1.403     9 C    1.392    41 H    0.964
    13   6 C    3.955 --     4 C    1.413    12 C    1.403    42 H    0.962
    14   6 C    3.972 --    15 C    0.980    44 H    0.972    43 H    0.969
                             3 C    0.960
    15   6 C    3.987 --    16 C    1.058    14 C    0.980    45 H    0.962
                            46 H    0.929
    16   6 C    3.602 --    17 N    1.396    15 C    1.058    48 H    0.957
    17   7 N    3.480 --    16 C    1.396    30 C    0.998    18 C    0.988
    18   6 C    3.956 --    17 N    0.988    50 H    0.968    19 C    0.967
                            49 H    0.964
    19   6 C    3.976 --    20 C    1.008    52 H    0.972    51 H    0.972
                            18 C    0.967
    20   6 C    3.944 --    21 C    1.409    29 C    1.380    19 C    1.008
    21   6 C    3.950 --    22 C    1.417    20 C    1.409    53 H    0.968
    22   6 C    3.959 --    21 C    1.417    23 C    1.383    54 H    0.963
    23   6 C    3.895 --    22 C    1.383    26 C    1.219    24 O    1.110
    24   8 O    2.255 --    23 C    1.110    25 C    0.976
    25   6 C    3.928 --    57 H    0.977    24 O    0.976    55 H    0.973
                            56 H    0.973
    26   6 C    3.899 --    29 C    1.395    23 C    1.219    27 O    1.104
    27   8 O    2.255 --    26 C    1.104    28 C    0.978
    28   6 C    3.932 --    27 O    0.978    58 H    0.977    59 H    0.973
                            60 H    0.973
    29   6 C    3.959 --    26 C    1.395    20 C    1.380    61 H    0.962
    30   6 C    3.957 --    17 N    0.998    64 H    0.978    62 H    0.966
                            63 H    0.960
    31   6 C    3.972 --    33 C    1.009    32 C    1.008    65 H    0.961
                             3 C    0.941
    32   6 C    3.978 --    31 C    1.008    67 H    0.982    68 H    0.981
                            66 H    0.973
    33   6 C    3.985 --    31 C    1.009    70 H    0.983    71 H    0.980
                            69 H    0.979
    34   1 H    0.996 --     5 C    0.958
    35   1 H    0.993 --     8 C    0.974
    36   1 H    0.993 --     8 C    0.977
    37   1 H    0.994 --     8 C    0.973
    38   1 H    0.993 --    11 C    0.973
    39   1 H    0.993 --    11 C    0.977
    40   1 H    0.993 --    11 C    0.974
    41   1 H    0.996 --    12 C    0.964
    42   1 H    0.998 --    13 C    0.962
    43   1 H    0.995 --    14 C    0.969
    44   1 H    0.996 --    14 C    0.972
    45   1 H    0.995 --    15 C    0.962
    46   1 H    0.971 --    15 C    0.929
    47   1 H    0.988 --     2 C    0.890
    48   1 H    0.995 --    16 C    0.957
    49   1 H    0.991 --    18 C    0.964
    50   1 H    0.994 --    18 C    0.968
    51   1 H    0.996 --    19 C    0.972
    52   1 H    0.996 --    19 C    0.972
    53   1 H    0.997 --    21 C    0.968
    54   1 H    0.995 --    22 C    0.963
    55   1 H    0.992 --    25 C    0.973
    56   1 H    0.992 --    25 C    0.973
    57   1 H    0.992 --    25 C    0.977
    58   1 H    0.993 --    28 C    0.977
    59   1 H    0.993 --    28 C    0.973
    60   1 H    0.993 --    28 C    0.973
    61   1 H    0.997 --    29 C    0.962
    62   1 H    0.985 --    30 C    0.966
    63   1 H    0.987 --    30 C    0.960
    64   1 H    0.993 --    30 C    0.978
    65   1 H    0.993 --    31 C    0.961
    66   1 H    0.990 --    32 C    0.973
    67   1 H    0.997 --    32 C    0.982
    68   1 H    0.994 --    32 C    0.981
    69   1 H    0.994 --    33 C    0.979
    70   1 H    0.997 --    33 C    0.983
    71   1 H    0.994 --    33 C    0.980
    72   1 H    0.970 --     1 N    0.941
 ---------------------------------------------------------------------------

molecular dipole:
                 x           y           z       tot (Debye)
 q only:        0.641      -0.036      -0.795
   full:        0.936      -0.066      -0.986       3.459

           -------------------------------------------------
          | TOTAL ENERGY              -99.406401586150 Eh   |
          | GRADIENT NORM               0.007400478673 Eh/α |
          | HOMO-LUMO GAP               1.677593482879 eV   |
           -------------------------------------------------

 * finished run on 2024/04/06 at 11:15:16.687
