   * xtb version 6.6.1 (8d0f1dd) compiled by 'conda@1efc2f54142f' on 2023-08-01
          program call               : xtb struc.xyz --opt loose --input .xc1 --gfn2

   ID    Z sym.   atoms
    1    6 C      1, 3, 5-7, 10, 11, 14
    2    7 N      2, 4, 9, 13
    3    8 O      8, 12
    4    1 H      15-25
constraining bond 2 23 to    5.6866700 Å, actual value:    4.8396505 Å

          :  Hamiltonian                  GFN2-xTB          :
 * total energy  :   -43.5288744 Eh     change       -0.6650680E-10 Eh
 * total energy  :   -46.5539809 Eh     change       -0.3025107E+01 Eh
 * total energy  :   -51.2976316 Eh     change       -0.4743651E+01 Eh
 * total energy  :   -57.9529154 Eh     change       -0.6655284E+01 Eh
 * total energy  :   -66.6002924 Eh     change       -0.8647377E+01 Eh
 * total energy  :   -76.9007194 Eh     change       -0.1030043E+02 Eh
 * total energy  :   -87.8169338 Eh     change       -0.1091621E+02 Eh
 * total energy  :   -66.9724437 Eh     change        0.2084449E+02 Eh
 * total energy  :   -85.8391616 Eh     change       -0.1886672E+02 Eh
 * total energy  :   -82.6345534 Eh     change        0.3204608E+01 Eh
 * total energy  :   -89.9004879 Eh     change       -0.3551537E-03 Eh
 * total energy  :   -89.9008990 Eh     change       -0.4110086E-03 Eh
 * total energy  :   -89.9012135 Eh     change       -0.3145238E-03 Eh
 * total energy  :   -89.9014780 Eh     change       -0.2645006E-03 Eh
 * total energy  :   -89.9017098 Eh     change       -0.2318614E-03 Eh
 * total energy  :   -89.9019392 Eh     change       -0.2293317E-03 Eh
 * total energy  :   -89.8995129 Eh     change        0.2426266E-02 Eh
 * total energy  :   -89.9019778 Eh     change       -0.2464845E-02 Eh
 * total energy  :   -89.9020038 Eh     change       -0.2604589E-04 Eh
   *** GEOMETRY OPTIMIZATION CONVERGED AFTER 96 ITERATIONS ***

 final structure:
================
25
 xtb: 6.6.1 (8d0f1dd)
C            1.68799361258565        1.63403071174580       -0.97191694629362
N            0.71161484219736       -1.09525253836576       -1.06071647676014
C            5.88836771787178       -5.05771118283495        2.14510397706518
N            5.04734512588549       -5.73014856840717        1.65588403135077
C           -0.07116591412918       -0.13107049229366       -0.74641463315412
C            0.29499704023097        1.22411963556655       -0.66486891910032
C           -0.62943627384592        2.25436847860531       -0.26968436872714
O           -0.34178606705285        3.43238946336531       -0.20449037671452
N           -1.93032597861645        1.83071501373579        0.06323185326767
C           -2.88767672881986        2.83097313810329        0.50740563707271
C           -2.38788964386923        0.55822545819806        0.00957304858390
O           -3.50309104015403        0.22538074283292        0.31134524918935
N           -1.44876592518400       -0.43960343951335       -0.44555324736970
C           -1.89737956383773       -1.67046522249687       -0.56836423237348
H            2.31654482879546        1.54019468244379       -0.08268620270827
H            2.11769864585376        1.00479695140126       -1.74782015074949
H            1.70439986183766        2.68056652878594       -1.26848825959137
H            6.22162147710853       -4.09020267946561        2.42569842721638
H           -2.39615638792963        3.80075732405853        0.47719158546623
H           -3.75842898822292        2.82540473547757       -0.14779343535440
H           -3.21625774913610        2.60333900998599        1.52145106044993
H           -1.23182119645897       -2.44431164436640       -0.90650279083060
H            0.91935417598613       -1.39541351833323       -1.14199034246005
H           -2.92922152133707       -1.86600792225401       -0.32954644553304
H            4.87989716439907       -6.70683612423259        1.47112357585163

          :  Hamiltonian                  GFN2-xTB          :
         :: total energy             -89.902003802044 Eh    ::
         :: gradient norm              0.003998433993 Eh/a0 ::
         :: HOMO-LUMO gap              0.934374962049 eV    ::
         :: SCC energy               -42.658578025255 Eh    ::
         :: -> dispersion             -0.018797536546 Eh    ::
         :: repulsion energy           3.152604335896 Eh    ::

    * Orbital Energies and Occupations

         #    Occupation            Energy/Eh            Energy/eV
      -------------------------------------------------------------
         1        2.0000           -0.8606704             -23.4200
       ...           ...                  ...                  ...
        25        1.9999           -0.6346403             -17.2694
        26        1.9998           -0.6250889             -17.0095
        27        1.9994           -0.6088516             -16.5677
        28        1.9993           -0.6065174             -16.5042
        29        1.9992           -0.6028193             -16.4035
        30        1.9976           -0.5863665             -15.9558
        31        1.9966           -0.5806196             -15.7995
        32        1.9949           -0.5744887             -15.6326
        33        1.9894           -0.5626473             -15.3104
        34        1.9619           -0.5422087             -14.7543
        35        1.9437           -0.5358978             -14.5825
        36        1.7603           -0.5113888             -13.9156
        37        1.4198           -0.4939883             -13.4421 (HOMO)
        38        0.4373           -0.4596506             -12.5077 (LUMO)
        39        0.4370           -0.4596380             -12.5074
        40        0.0628           -0.4255320             -11.5793
        41        0.0008           -0.3565200              -9.7014
        42        0.0005           -0.3480328              -9.4705
        43        0.0000           -0.2559558              -6.9649
        44                         -0.1633423              -4.4448
        45                         -0.1332884              -3.6270
        46                         -0.1167051              -3.1757
        47                         -0.0623241              -1.6959
        48                          0.0020730               0.0564
       ...                                ...                  ...
        67                          8.5118513             231.6193
      -------------------------------------------------------------
                  HL-Gap            0.0343376 Eh            0.9344 eV

     #   Z          covCN         q      C6AA      α(0)
     1   6 C        3.759    -0.118    22.804     6.808
     2   7 N        1.786    -0.335    29.512     8.046
     3   6 C        1.838     0.074    29.294     8.744
     4   7 N        1.771    -0.034    22.594     7.038
     5   6 C        2.868     0.137    25.012     8.198
     6   6 C        2.955    -0.032    28.793     8.801
     7   6 C        2.767     0.265    22.523     7.772
     8   8 O        0.859    -0.345    20.603     6.086
     9   7 N        2.738    -0.074    22.673     7.072
    10   6 C        3.710    -0.059    21.780     6.670
    11   6 C        2.734     0.316    21.624     7.613
    12   8 O        0.859    -0.358    20.858     6.123
    13   7 N        2.741    -0.002    21.299     6.854
    14   6 C        2.810    -0.005    28.132     8.690
    15   1 H        0.924     0.100     1.786     2.090
    16   1 H        0.925     0.086     1.917     2.165
    17   1 H        0.925     0.105     1.740     2.063
    18   1 H        0.927     0.185     1.179     1.698
    19   1 H        0.925     0.115     1.654     2.011
    20   1 H        0.925     0.095     1.827     2.114
    21   1 H        0.925     0.094     1.842     2.122
    22   1 H        0.926     0.121     1.603     1.980
    23   1 H        0.905     0.252     0.869     1.459
    24   1 H        0.926     0.139     1.470     1.896
    25   1 H        0.860     0.276     0.790     1.392

Wiberg/Mayer (AO) data.
largest (>0.10) Wiberg bond orders for each atom

     #   Z sym  total        # sym  WBO       # sym  WBO       # sym  WBO
 ---------------------------------------------------------------------------
     1   6 C    3.940 --     6 C    1.061    16 H    0.960    17 H    0.959
                            15 H    0.920
     2   7 N    2.713 --     5 C    1.604    23 H    0.931
     3   6 C    3.369 --     4 N    2.432    18 H    0.928
     4   7 N    3.319 --     3 C    2.432    25 H    0.876
     5   6 C    3.915 --     2 N    1.604     6 C    1.249    13 N    0.957
     6   6 C    3.607 --     5 C    1.249     7 C    1.116     1 C    1.061
     7   6 C    3.914 --     8 O    1.666     6 C    1.116     9 N    1.043
     8   8 O    1.917 --     7 C    1.666     9 N    0.104
     9   7 N    3.527 --    11 C    1.197     7 C    1.043    10 C    0.971
                            12 O    0.151     8 O    0.104
    10   6 C    3.907 --     9 N    0.971    19 H    0.965    20 H    0.962
                            21 H    0.962
    11   6 C    3.927 --    12 O    1.695     9 N    1.197    13 N    0.952
    12   8 O    2.013 --    11 C    1.695     9 N    0.151
    13   7 N    3.579 --    14 C    1.481     5 C    0.957    11 C    0.952
    14   6 C    3.487 --    13 N    1.481    22 H    0.959    24 H    0.954
    15   1 H    0.942 --     1 C    0.920
    16   1 H    0.976 --     1 C    0.960
    17   1 H    0.976 --     1 C    0.959
    18   1 H    0.955 --     3 C    0.928
    19   1 H    0.984 --    10 C    0.965
    20   1 H    0.980 --    10 C    0.962
    21   1 H    0.980 --    10 C    0.962
    22   1 H    0.984 --    14 C    0.959
    23   1 H    0.936 --     2 N    0.931
    24   1 H    0.979 --    14 C    0.954
    25   1 H    0.902 --     4 N    0.876
 ---------------------------------------------------------------------------

molecular dipole:
                 x           y           z       tot (Debye)
 q only:        4.551      -5.447       1.231
   full:        4.668      -5.720       1.253      19.033

           -------------------------------------------------
          | TOTAL ENERGY              -89.902003802044 Eh   |
          | GRADIENT NORM               0.003998433993 Eh/α |
          | HOMO-LUMO GAP               0.934374962049 eV   |
           -------------------------------------------------

 * finished run on 2024/06/05 at 19:58:07.116
