   * xtb version 6.6.1 (8d0f1dd) compiled by 'conda@1efc2f54142f' on 2023-08-01
          program call               : xtb xtbopt.xyz --opt crude --input .xc2 --gfn2

   ID    Z sym.   atoms
    1    6 C      1, 3, 5-7, 10, 11, 14
    2    7 N      2, 4, 9, 13
    3    8 O      8, 12
    4    1 H      15-25

          :  Hamiltonian                  GFN2-xTB          :
 * total energy  :   -39.5058566 Eh     change        0.8256507E-11 Eh
 * total energy  :   -41.8358106 Eh     change       -0.2329954E+01 Eh
 * total energy  :   -42.0064685 Eh     change       -0.1706580E+00 Eh
 * total energy  :   -42.0164601 Eh     change       -0.9991586E-02 Eh
 * total energy  :   -42.0198569 Eh     change       -0.3396795E-02 Eh
 * total energy  :   -42.0197785 Eh     change        0.7844249E-04 Eh
 * total energy  :   -42.0208087 Eh     change       -0.1030225E-02 Eh
 * total energy  :   -42.0211676 Eh     change       -0.3588907E-03 Eh
 * total energy  :   -42.0218630 Eh     change       -0.6954349E-03 Eh
 * total energy  :   -42.0229112 Eh     change       -0.1048125E-02 Eh
 * total energy  :   -42.0349640 Eh     change       -0.1602944E-02 Eh
 * total energy  :   -42.0367457 Eh     change       -0.1781683E-02 Eh
 * total energy  :   -42.0381551 Eh     change       -0.1409394E-02 Eh
 * total energy  :   -42.0394598 Eh     change       -0.1304684E-02 Eh
 * total energy  :   -42.0410957 Eh     change       -0.1635978E-02 Eh
 * total energy  :   -42.0414300 Eh     change       -0.3342730E-03 Eh
 * total energy  :   -42.0418043 Eh     change       -0.3743148E-03 Eh
 * total energy  :   -42.0419641 Eh     change       -0.1597576E-03 Eh
 * total energy  :   -42.0422377 Eh     change       -0.2736544E-03 Eh
   *** GEOMETRY OPTIMIZATION CONVERGED AFTER 26 ITERATIONS ***

 final structure:
================
25
 xtb: 6.6.1 (8d0f1dd)
C            1.58462405538230        1.86721276897184       -0.93594896524965
N            0.76956087590845       -0.77516291010382       -1.12282433281045
C            6.49907070742188       -5.73599301284816        2.26260403665141
N            5.61968129029930       -6.44190775335973        1.91263575942493
C           -0.13129591007998        0.05788412821607       -0.76542682415221
C            0.19900439310857        1.42889511069668       -0.66332797520202
C           -0.77385478361081        2.43232579182151       -0.33007074769325
O           -0.54604103144303        3.62713893072828       -0.31016384848338
N           -2.06255862653518        1.95953634132766       -0.01152662695704
C           -3.06903305097765        2.93169146285414        0.38554274355532
C           -2.47083536867844        0.67151043678555       -0.05183033596698
O           -3.58184268868989        0.30559114799103        0.22639626521557
N           -1.48636188131380       -0.31100407474272       -0.46182195765514
C           -1.91149925985498       -1.55807565049738       -0.51333145073102
H            2.24342113130537        1.56410273009213       -0.11886039698531
H            1.96907063326541        1.38076522858095       -1.83139834128204
H            1.61838906380831        2.94957343892784       -1.03058683487485
H            6.91151766114876       -4.76917485998626        2.39602821902371
H           -2.65171872065443        3.92460939242310        0.23336367508704
H           -3.96812328148980        2.79640297704872       -0.21432277052802
H           -3.32676794657651        2.79076818796425        1.43557937153859
H           -1.25534870631197       -2.36142891940374       -0.79300466879370
H            0.53820036836965       -1.74941262914910       -1.25376608540271
H           -2.94179284248384       -1.74871873168981       -0.26231652001629
H            5.38496543312255       -7.41889099064121        1.84955023005840

          :  Hamiltonian                  GFN2-xTB          :
         :: total energy             -42.042237746463 Eh    ::
         :: gradient norm              0.004279762886 Eh/a0 ::
         :: HOMO-LUMO gap              0.766974285666 eV    ::
         :: SCC energy               -42.609470424631 Eh    ::
         :: -> dispersion             -0.018729739160 Eh    ::
         :: repulsion energy           0.567123350781 Eh    ::

    * Orbital Energies and Occupations

         #    Occupation            Energy/Eh            Energy/eV
      -------------------------------------------------------------
         1        2.0000           -0.8589155             -23.3723
       ...           ...                  ...                  ...
        25        1.9999           -0.6288160             -17.1110
        26        1.9997           -0.6162344             -16.7686
        27        1.9994           -0.6066657             -16.5082
        28        1.9993           -0.6025847             -16.3972
        29        1.9991           -0.5996534             -16.3174
        30        1.9966           -0.5783880             -15.7387
        31        1.9964           -0.5777964             -15.7226
        32        1.9936           -0.5683984             -15.4669
        33        1.9899           -0.5612196             -15.2716
        34        1.9632           -0.5405371             -14.7088
        35        1.9364           -0.5316730             -14.4676
        36        1.8943           -0.5232871             -14.2394
        37        1.2844           -0.4868462             -13.2478 (HOMO)
        38        0.4647           -0.4586604             -12.4808 (LUMO)
        39        0.4105           -0.4561477             -12.4124
        40        0.0717           -0.4254698             -11.5776
        41        0.0007           -0.3505265              -9.5383
        42        0.0005           -0.3466297              -9.4323
        43        0.0000           -0.2530635              -6.8862
        44                         -0.1674671              -4.5570
        45                         -0.1384319              -3.7669
        46                         -0.1148334              -3.1248
        47                         -0.0648646              -1.7651
        48                         -0.0502114              -1.3663
       ...                                ...                  ...
        67                          0.7584215              20.6377
      -------------------------------------------------------------
                  HL-Gap            0.0281858 Eh            0.7670 eV

     #   Z          covCN         q      C6AA      α(0)
     1   6 C        3.760    -0.121    22.875     6.818
     2   7 N        1.791    -0.293    28.423     7.897
     3   6 C        1.838     0.077    29.224     8.733
     4   7 N        1.771    -0.028    22.461     7.018
     5   6 C        2.822     0.150    24.727     8.148
     6   6 C        2.966    -0.017    28.434     8.747
     7   6 C        2.767     0.264    22.553     7.777
     8   8 O        0.859    -0.345    20.613     6.087
     9   7 N        2.738    -0.074    22.669     7.071
    10   6 C        3.711    -0.059    21.771     6.668
    11   6 C        2.738     0.317    21.612     7.611
    12   8 O        0.859    -0.362    20.928     6.134
    13   7 N        2.736    -0.012    21.482     6.884
    14   6 C        2.809    -0.006    28.150     8.693
    15   1 H        0.924     0.109     1.706     2.043
    16   1 H        0.925     0.108     1.711     2.046
    17   1 H        0.925     0.105     1.737     2.061
    18   1 H        0.927     0.189     1.155     1.680
    19   1 H        0.925     0.115     1.653     2.010
    20   1 H        0.925     0.096     1.820     2.110
    21   1 H        0.924     0.093     1.852     2.128
    22   1 H        0.926     0.107     1.720     2.051
    23   1 H        0.860     0.168     1.283     1.775
    24   1 H        0.926     0.137     1.486     1.906
    25   1 H        0.860     0.279     0.778     1.382

Wiberg/Mayer (AO) data.
largest (>0.10) Wiberg bond orders for each atom

     #   Z sym  total        # sym  WBO       # sym  WBO       # sym  WBO
 ---------------------------------------------------------------------------
     1   6 C    3.930 --     6 C    1.074    17 H    0.965    16 H    0.935
                            15 H    0.913
     2   7 N    2.720 --     5 C    1.631    23 H    0.932
     3   6 C    3.383 --     4 N    2.445    18 H    0.928
     4   7 N    3.333 --     3 C    2.445    25 H    0.876
     5   6 C    3.922 --     2 N    1.631     6 C    1.221    13 N    0.969
     6   6 C    3.585 --     5 C    1.221     7 C    1.126     1 C    1.074
     7   6 C    3.912 --     8 O    1.660     6 C    1.126     9 N    1.039
     8   8 O    1.903 --     7 C    1.660     9 N    0.104
     9   7 N    3.525 --    11 C    1.202     7 C    1.039    10 C    0.971
                            12 O    0.151     8 O    0.104
    10   6 C    3.907 --     9 N    0.971    19 H    0.965    20 H    0.964
                            21 H    0.961
    11   6 C    3.926 --    12 O    1.695     9 N    1.202    13 N    0.945
    12   8 O    2.014 --    11 C    1.695     9 N    0.151
    13   7 N    3.576 --    14 C    1.469     5 C    0.969    11 C    0.945
    14   6 C    3.481 --    13 N    1.469    22 H    0.957    24 H    0.953
    15   1 H    0.940 --     1 C    0.913
    16   1 H    0.957 --     1 C    0.935
    17   1 H    0.982 --     1 C    0.965
    18   1 H    0.956 --     3 C    0.928
    19   1 H    0.984 --    10 C    0.965
    20   1 H    0.981 --    10 C    0.964
    21   1 H    0.980 --    10 C    0.961
    22   1 H    0.987 --    14 C    0.957
    23   1 H    0.965 --     2 N    0.932
    24   1 H    0.980 --    14 C    0.953
    25   1 H    0.902 --     4 N    0.876
 ---------------------------------------------------------------------------

molecular dipole:
                 x           y           z       tot (Debye)
 q only:        5.211      -6.123       1.560
   full:        5.056      -6.562       1.627      21.458

           -------------------------------------------------
          | TOTAL ENERGY              -42.042237746463 Eh   |
          | GRADIENT NORM               0.004279762886 Eh/α |
          | HOMO-LUMO GAP               0.766974285666 eV   |
           -------------------------------------------------

 * finished run on 2024/06/05 at 19:58:08.011
