   * xtb version 6.6.1 (8d0f1dd) compiled by 'conda@1efc2f54142f' on 2023-08-01
          program call               : xtb struc.xyz --opt loose --input .xc1 --gfn2

   ID    Z sym.   atoms
    1    6 C      1, 3, 5-7, 10, 11, 14
    2    7 N      2, 4, 9, 13
    3    8 O      8, 12
    4    1 H      15-25
constraining bond 4 11 to    5.9200000 Å, actual value:    3.6888736 Å

          :  Hamiltonian                  GFN2-xTB          :
 * total energy  :   -24.4713681 Eh     change       -0.6650680E-10 Eh
 * total energy  :   -32.6532428 Eh     change       -0.8181875E+01 Eh
 * total energy  :   -37.8856802 Eh     change       -0.5232437E+01 Eh
 * total energy  :   -40.8692907 Eh     change       -0.2983610E+01 Eh
 * total energy  :   -41.7914803 Eh     change       -0.9221896E+00 Eh
 * total energy  :   -41.8572386 Eh     change       -0.6575829E-01 Eh
 * total energy  :   -41.8725725 Eh     change       -0.1533397E-01 Eh
 * total energy  :   -41.9228928 Eh     change       -0.5032023E-01 Eh
 * total energy  :   -41.9474522 Eh     change       -0.2455939E-01 Eh
 * total energy  :   -41.9668585 Eh     change       -0.1940632E-01 Eh
 * total energy  :   -42.0745941 Eh     change       -0.7334884E-04 Eh
 * total energy  :   -42.0746476 Eh     change       -0.5345619E-04 Eh
 * total energy  :   -42.0745927 Eh     change        0.5484868E-04 Eh
 * total energy  :   -42.0743188 Eh     change        0.2739419E-03 Eh
 * total energy  :   -42.0745396 Eh     change       -0.2208632E-03 Eh
 * total energy  :   -42.0747221 Eh     change       -0.1824619E-03 Eh
 * total energy  :   -42.0748296 Eh     change       -0.1074487E-03 Eh
 * total energy  :   -42.0748943 Eh     change       -0.6475479E-04 Eh
 * total energy  :   -42.0749170 Eh     change       -0.2270035E-04 Eh
   *** GEOMETRY OPTIMIZATION CONVERGED AFTER 98 ITERATIONS ***

 final structure:
================
25
 xtb: 6.6.1 (8d0f1dd)
C            2.67646368820336        0.79566426214012        0.96423129581045
N            2.00048938311410       -0.15160240590215        0.10033136761395
C            2.74539509756892       -1.03676557241836       -0.63179992963351
N            2.42808169247178       -1.89411818918418       -1.49562582327562
C           -0.18295256110205       -1.12927695545503        0.16752022477597
C            0.57942131055999       -0.02295173078688        0.03351188459827
C            0.07642625511869        1.28634232075851       -0.19050311574788
O            0.65130998203235        2.27672433261296       -0.52055159323336
N           -1.47028575501763        1.49389279581750        0.05260368403777
C           -2.04697665024537        2.55547357813627       -0.78095514590641
C           -2.09995898680493        0.98381967420583        1.00163019398450
O           -2.55580836346997        0.40474068929140        1.88702499376031
N           -0.77787514136187       -2.10922136415760        0.44112628494063
C           -1.41571778013397       -3.31633950577333        0.17901635894624
H            2.13364763572422        0.89374206004085        1.90517969048067
H            3.68283757164245        0.44380643350284        1.17679383172613
H            2.74294704454160        1.78021522614817        0.49353800204059
H            3.80456986051042       -0.97487764148094       -0.40111856386415
H           -1.22589536515583        3.18474863731272       -1.12599939729843
H           -2.55305678173880        2.10983180609720       -1.63738981074912
H           -2.74993330734015        3.15868306402639       -0.21047268958382
H           -0.80544614468539       -4.11803180555128        0.60054416157612
H           -1.55921475459225       -3.48781284749850       -0.89036515676942
H           -2.37793903939357       -3.31725768083132        0.69375761935945
H            1.45990262362102       -1.99119063944289       -1.78085674967319

          :  Hamiltonian                  GFN2-xTB          :
         :: total energy             -42.074917005974 Eh    ::
         :: gradient norm              0.002260510694 Eh/a0 ::
         :: HOMO-LUMO gap              1.837973609082 eV    ::
         :: SCC energy               -42.685871071235 Eh    ::
         :: -> dispersion             -0.020707402270 Eh    ::
         :: repulsion energy           0.610715087733 Eh    ::

    * Orbital Energies and Occupations

         #    Occupation            Energy/Eh            Energy/eV
      -------------------------------------------------------------
         1        2.0000           -0.9448199             -25.7099
       ...           ...                  ...                  ...
        25        2.0000           -0.6748062             -18.3624
        26        2.0000           -0.6639885             -18.0680
        27        1.9999           -0.6364966             -17.3200
        28        1.9998           -0.6353289             -17.2882
        29        1.9998           -0.6298772             -17.1398
        30        1.9996           -0.6212953             -16.9063
        31        1.9994           -0.6144855             -16.7210
        32        1.9992           -0.6085273             -16.5589
        33        1.9991           -0.6075123             -16.5313
        34        1.9986           -0.6004121             -16.3380
        35        1.9866           -0.5646870             -15.3659
        36        1.8661           -0.5272841             -14.3481
        37        1.8137           -0.5216076             -14.1937 (HOMO)
        38        0.2405           -0.4540633             -12.3557 (LUMO)
        39        0.0647           -0.4317641             -11.7489
        40        0.0290           -0.4187410             -11.3945
        41        0.0036           -0.3856036             -10.4928
        42        0.0005           -0.3539323              -9.6310
        43        0.0000           -0.3078017              -8.3757
        44        0.0000           -0.2650268              -7.2117
        45                         -0.1597145              -4.3461
        46                         -0.1177831              -3.2050
        47                         -0.0929276              -2.5287
        48                         -0.0434720              -1.1829
       ...                                ...                  ...
        67                          1.0143283              27.6013
      -------------------------------------------------------------
                  HL-Gap            0.0675443 Eh            1.8380 eV

     #   Z          covCN         q      C6AA      α(0)
     1   6 C        3.702    -0.069    21.985     6.704
     2   7 N        2.739    -0.031    21.838     6.940
     3   6 C        2.761     0.124    25.265     8.231
     4   7 N        1.773    -0.271    27.861     7.816
     5   6 C        1.909     0.087    28.919     8.685
     6   6 C        2.886    -0.003    28.104     8.691
     7   6 C        2.743     0.261    22.604     7.785
     8   8 O        0.857    -0.294    19.665     5.946
     9   7 N        2.708    -0.051    22.229     7.002
    10   6 C        3.704    -0.066    21.916     6.693
    11   6 C        1.792     0.309    24.244     7.958
    12   8 O        0.856    -0.135    17.048     5.536
    13   7 N        1.821    -0.001    21.982     6.947
    14   6 C        3.686    -0.057    21.798     6.684
    15   1 H        0.924     0.071     2.072     2.251
    16   1 H        0.925     0.089     1.886     2.147
    17   1 H        0.924     0.097     1.815     2.107
    18   1 H        0.925     0.098     1.807     2.102
    19   1 H        0.924     0.134     1.505     1.918
    20   1 H        0.925     0.100     1.783     2.088
    21   1 H        0.925     0.099     1.797     2.097
    22   1 H        0.924     0.129     1.545     1.944
    23   1 H        0.924     0.103     1.756     2.072
    24   1 H        0.924     0.121     1.607     1.982
    25   1 H        0.860     0.156     1.359     1.826

Wiberg/Mayer (AO) data.
largest (>0.10) Wiberg bond orders for each atom

     #   Z sym  total        # sym  WBO       # sym  WBO       # sym  WBO
 ---------------------------------------------------------------------------
     1   6 C    3.935 --     2 N    0.990    15 H    0.974    16 H    0.970
                            17 H    0.957
     2   7 N    3.417 --     3 C    1.181     6 C    0.997     1 C    0.990
                             4 N    0.140
     3   6 C    3.949 --     4 N    1.786     2 N    1.181    18 H    0.926
     4   7 N    2.909 --     3 C    1.786    25 H    0.934     2 N    0.140
     5   6 C    3.881 --    13 N    2.239     6 C    1.381
     6   6 C    3.869 --     5 C    1.381     7 C    1.184     2 N    0.997
                            13 N    0.112     8 O    0.100
     7   6 C    3.851 --     8 O    1.792     6 C    1.184     9 N    0.716
     8   8 O    2.173 --     7 C    1.792     6 C    0.100
     9   7 N    3.563 --    11 C    1.579    10 C    0.922     7 C    0.716
                            12 O    0.229
    10   6 C    3.881 --    21 H    0.975    20 H    0.968    19 H    0.955
                             9 N    0.922
    11   6 C    3.724 --    12 O    2.036     9 N    1.579
    12   8 O    2.360 --    11 C    2.036     9 N    0.229
    13   7 N    3.547 --     5 C    2.239    14 C    1.041     6 C    0.112
    14   6 C    3.928 --    13 N    1.041    23 H    0.947    24 H    0.942
                            22 H    0.931
    15   1 H    0.988 --     1 C    0.974
    16   1 H    0.988 --     1 C    0.970
    17   1 H    0.976 --     1 C    0.957
    18   1 H    0.978 --     3 C    0.926
    19   1 H    0.981 --    10 C    0.955
    20   1 H    0.989 --    10 C    0.968
    21   1 H    0.990 --    10 C    0.975
    22   1 H    0.979 --    14 C    0.931
    23   1 H    0.979 --    14 C    0.947
    24   1 H    0.980 --    14 C    0.942
    25   1 H    0.966 --     4 N    0.934
 ---------------------------------------------------------------------------

molecular dipole:
                 x           y           z       tot (Debye)
 q only:       -1.256      -0.702       0.325
   full:       -1.604      -0.558       0.466       4.478

           -------------------------------------------------
          | TOTAL ENERGY              -42.074917005974 Eh   |
          | GRADIENT NORM               0.002260510694 Eh/α |
          | HOMO-LUMO GAP               1.837973609082 eV   |
           -------------------------------------------------

 * finished run on 2024/06/05 at 19:59:11.812
