   * xtb version 6.6.1 (8d0f1dd) compiled by 'conda@1efc2f54142f' on 2023-08-01
          program call               : xtb xtbopt.xyz --opt crude --input .xc2 --gfn2

   ID    Z sym.   atoms
    1    6 C      1, 3, 5-7, 10, 11, 14
    2    7 N      2, 4, 9, 13
    3    8 O      8, 12
    4    1 H      15-25
########################################################################
[WARNING] Please study the warnings concerning your input carefully
-1- readin_getIntValue: could not parse ''
########################################################################

          :  Hamiltonian                  GFN2-xTB          :
 * total energy  :   -42.0749322 Eh     change        0.0000000E+00 Eh
 * total energy  :   -42.0762920 Eh     change       -0.1359750E-02 Eh
 * total energy  :   -42.0774563 Eh     change       -0.1164338E-02 Eh
 * total energy  :   -42.0782469 Eh     change       -0.7905931E-03 Eh
 * total energy  :   -42.0784648 Eh     change       -0.2179098E-03 Eh
   *** GEOMETRY OPTIMIZATION CONVERGED AFTER 5 ITERATIONS ***

 final structure:
================
25
 xtb: 6.6.1 (8d0f1dd)
C            2.71958758575225        0.81456505207520        0.99557824007599
N            2.00898197722522       -0.12395550736709        0.15585667284722
C            2.66857589362496       -1.04315316060478       -0.60256012417792
N            2.20427083305064       -1.86425795996119       -1.43439046041383
C           -0.17236292869256       -1.08581616881547        0.18622465029186
C            0.59744605092376        0.02023940686165        0.07438599653177
C            0.11061712624764        1.31849599783219       -0.21706489002590
O            0.67829461441367        2.31427952243061       -0.54144963112673
N           -1.42884577083054        1.45128221520911       -0.03167743157962
C           -2.05190910715926        2.53493947562652       -0.79801174405593
C           -2.00567362474977        0.82135782885907        0.87988978443983
O           -2.41531636277939        0.17851062649308        1.74508681119046
N           -0.77535471545909       -2.06446878274701        0.44990688890492
C           -1.39933802623658       -3.27821985057011        0.18362606103186
H            2.19645322427205        0.92875287646726        1.94594875845814
H            3.72258812639097        0.44165699643720        1.18673928610622
H            2.79223029254433        1.79412923558646        0.51565057047760
H            3.74167648987886       -1.05961460317744       -0.44074665110455
H           -1.25272768903121        3.21577371463156       -1.09632640163679
H           -2.53210864604693        2.12112623991020       -1.68424499305320
H           -2.78104028574142        3.06900073772682       -0.19326714116231
H           -0.78305349479105       -4.07557851385007        0.60472518624469
H           -1.53476515504976       -3.44909455447947       -0.88695244793939
H           -2.36424880862784       -3.28911451565871        0.69376416736422
H            1.21645391493824       -1.87259776730733       -1.65951953977235

          :  Hamiltonian                  GFN2-xTB          :
         :: total energy             -42.078464803815 Eh    ::
         :: gradient norm              0.005366868923 Eh/a0 ::
         :: HOMO-LUMO gap              1.816346593242 eV    ::
         :: SCC energy               -42.691465950540 Eh    ::
         :: -> dispersion             -0.021218495866 Eh    ::
         :: repulsion energy           0.612770841207 Eh    ::

    * Orbital Energies and Occupations

         #    Occupation            Energy/Eh            Energy/eV
      -------------------------------------------------------------
         1        2.0000           -0.9472219             -25.7752
       ...           ...                  ...                  ...
        25        2.0000           -0.6764517             -18.4072
        26        2.0000           -0.6653276             -18.1045
        27        1.9999           -0.6379281             -17.3589
        28        1.9998           -0.6358520             -17.3024
        29        1.9998           -0.6304195             -17.1546
        30        1.9996           -0.6219443             -16.9240
        31        1.9994           -0.6158896             -16.7592
        32        1.9992           -0.6115227             -16.6404
        33        1.9992           -0.6104146             -16.6102
        34        1.9985           -0.6005923             -16.3429
        35        1.9857           -0.5651018             -15.3772
        36        1.8601           -0.5279659             -14.3667
        37        1.8156           -0.5232080             -14.2372 (HOMO)
        38        0.2539           -0.4564584             -12.4209 (LUMO)
        39        0.0596           -0.4318529             -11.7513
        40        0.0254           -0.4180713             -11.3763
        41        0.0038           -0.3878635             -10.5543
        42        0.0005           -0.3547984              -9.6546
        43        0.0000           -0.3071108              -8.3569
        44        0.0000           -0.2510272              -6.8308
        45                         -0.1602677              -4.3611
        46                         -0.1167332              -3.1765
        47                         -0.0886711              -2.4129
        48                         -0.0416463              -1.1333
       ...                                ...                  ...
        67                          1.0069257              27.3998
      -------------------------------------------------------------
                  HL-Gap            0.0667495 Eh            1.8163 eV

     #   Z          covCN         q      C6AA      α(0)
     1   6 C        3.698    -0.069    21.997     6.708
     2   7 N        2.743    -0.027    21.767     6.929
     3   6 C        2.766     0.125    25.235     8.227
     4   7 N        1.774    -0.277    28.004     7.836
     5   6 C        1.910     0.085    28.972     8.693
     6   6 C        2.893    -0.008    28.213     8.709
     7   6 C        2.756     0.262    22.579     7.781
     8   8 O        0.857    -0.296    19.716     5.953
     9   7 N        2.714    -0.045    22.119     6.985
    10   6 C        3.699    -0.066    21.945     6.700
    11   6 C        1.793     0.306    24.304     7.968
    12   8 O        0.856    -0.138    17.091     5.543
    13   7 N        1.821    -0.003    22.009     6.951
    14   6 C        3.685    -0.056    21.795     6.684
    15   1 H        0.924     0.074     2.039     2.233
    16   1 H        0.925     0.091     1.873     2.140
    17   1 H        0.924     0.098     1.806     2.102
    18   1 H        0.925     0.098     1.803     2.100
    19   1 H        0.924     0.135     1.499     1.915
    20   1 H        0.925     0.103     1.761     2.076
    21   1 H        0.925     0.100     1.786     2.090
    22   1 H        0.924     0.130     1.538     1.939
    23   1 H        0.924     0.104     1.751     2.069
    24   1 H        0.924     0.121     1.604     1.981
    25   1 H        0.860     0.155     1.365     1.830

Wiberg/Mayer (AO) data.
largest (>0.10) Wiberg bond orders for each atom

     #   Z sym  total        # sym  WBO       # sym  WBO       # sym  WBO
 ---------------------------------------------------------------------------
     1   6 C    3.934 --     2 N    0.990    15 H    0.973    16 H    0.970
                            17 H    0.956
     2   7 N    3.424 --     3 C    1.188     6 C    1.001     1 C    0.990
                             4 N    0.138
     3   6 C    3.950 --     4 N    1.776     2 N    1.188    18 H    0.928
     4   7 N    2.902 --     3 C    1.776    25 H    0.930     2 N    0.138
     5   6 C    3.880 --    13 N    2.231     6 C    1.373
     6   6 C    3.868 --     5 C    1.373     7 C    1.182     2 N    1.001
                            13 N    0.111     8 O    0.103
     7   6 C    3.860 --     8 O    1.785     6 C    1.182     9 N    0.739
     8   8 O    2.169 --     7 C    1.785     6 C    0.103
     9   7 N    3.570 --    11 C    1.566    10 C    0.923     7 C    0.739
                            12 O    0.224
    10   6 C    3.880 --    21 H    0.975    20 H    0.967    19 H    0.956
                             9 N    0.923
    11   6 C    3.719 --    12 O    2.030     9 N    1.566
    12   8 O    2.353 --    11 C    2.030     9 N    0.224
    13   7 N    3.542 --     5 C    2.231    14 C    1.041     6 C    0.111
    14   6 C    3.928 --    13 N    1.041    23 H    0.947    24 H    0.943
                            22 H    0.930
    15   1 H    0.987 --     1 C    0.973
    16   1 H    0.988 --     1 C    0.970
    17   1 H    0.975 --     1 C    0.956
    18   1 H    0.979 --     3 C    0.928
    19   1 H    0.981 --    10 C    0.956
    20   1 H    0.989 --    10 C    0.967
    21   1 H    0.989 --    10 C    0.975
    22   1 H    0.978 --    14 C    0.930
    23   1 H    0.979 --    14 C    0.947
    24   1 H    0.977 --    14 C    0.943
    25   1 H    0.967 --     4 N    0.930
 ---------------------------------------------------------------------------

molecular dipole:
                 x           y           z       tot (Debye)
 q only:       -1.194      -0.669       0.322
   full:       -1.493      -0.524       0.459       4.187

           -------------------------------------------------
          | TOTAL ENERGY              -42.078464803815 Eh   |
          | GRADIENT NORM               0.005366868923 Eh/α |
          | HOMO-LUMO GAP               1.816346593242 eV   |
           -------------------------------------------------

 * finished run on 2024/06/05 at 19:59:12.074
