   * xtb version 6.6.1 (8d0f1dd) compiled by 'conda@1efc2f54142f' on 2023-08-01
          program call               : xtb struc.xyz --opt loose --input .xc1 --gfn2

   ID    Z sym.   atoms
    1    6 C      1, 3, 5-7, 10, 11, 14
    2    7 N      2, 4, 9, 13
    3    8 O      8, 12
    4    1 H      15-25
constraining bond 12 20 to    4.6333300 Å, actual value:    2.6315711 Å

          :  Hamiltonian                  GFN2-xTB          :
 * total energy  :   -56.5572512 Eh     change       -0.6650680E-10 Eh
 * total energy  :   -69.2046268 Eh     change       -0.1264738E+02 Eh
 * total energy  :   -85.7503926 Eh     change       -0.1654577E+02 Eh
 * total energy  :  -104.1396755 Eh     change       -0.1838928E+02 Eh
 * total energy  :   -83.1340972 Eh     change        0.2100558E+02 Eh
 * total energy  :   -93.6941844 Eh     change       -0.1056009E+02 Eh
 * total energy  :   -94.8897724 Eh     change       -0.1195588E+01 Eh
 * total energy  :   -94.5347604 Eh     change        0.3550120E+00 Eh
 * total energy  :  -102.5339727 Eh     change       -0.7999212E+01 Eh
 * total energy  :  -103.2875180 Eh     change       -0.7535453E+00 Eh
 * total energy  :  -104.8727197 Eh     change       -0.3664313E-02 Eh
 * total energy  :  -104.8755001 Eh     change       -0.2780430E-02 Eh
 * total energy  :  -104.8764360 Eh     change       -0.9358265E-03 Eh
 * total energy  :  -104.8769354 Eh     change       -0.4994037E-03 Eh
 * total energy  :  -104.8770922 Eh     change       -0.1567927E-03 Eh
 * total energy  :  -104.8771450 Eh     change       -0.5279770E-04 Eh
 * total energy  :  -104.8771750 Eh     change       -0.3006712E-04 Eh
 * total energy  :  -104.8771900 Eh     change       -0.1492084E-04 Eh
 * total energy  :  -104.8771996 Eh     change       -0.9598190E-05 Eh
   *** GEOMETRY OPTIMIZATION CONVERGED AFTER 41 ITERATIONS ***

 final structure:
================
25
 xtb: 6.6.1 (8d0f1dd)
C            3.21479777016999        1.15028304119566        0.02940641021250
N            2.30479802741986        0.03639627378968        0.00995475884260
C            2.62048917527148       -1.25733744048290       -0.01934776325181
N            1.49046727276503       -2.00505094640324       -0.01118962456660
C            0.42343355480963       -1.15458944178597        0.02536552582062
C            0.93318616248366        0.13511350542762        0.03861089484890
C            0.06451993425848        1.29144397641931        0.06429819057394
O            0.40140896843768        2.45268668523708        0.08247239245574
N           -1.28755708136136        0.88250237237633        0.05892390214396
C           -2.28785049422419        1.98051901922464        0.07760193252686
C           -1.76776581063957       -0.35842060189871        0.05560416473998
O           -3.43184223444255        1.62566720144865       -0.60488145105696
N           -0.91033079286314       -1.39641661577199        0.04066047448597
C           -1.42792263933015       -2.74837074311419        0.05275750917328
H            3.72648476697117        1.20469707893064        0.99168215790294
H            3.95894957985149        1.04614913935744       -0.75924094208257
H            2.64588631408022        2.06765241262570       -0.11749786843504
H            3.61538475086372       -1.65371124209749       -0.04655598590928
H           -1.78169077166382        2.85747897251279       -0.35949545394869
H           -3.58766733870742        1.73538785817402       -0.85809719590323
H           -2.50115483284983        2.19734498085171        1.13772279286304
H           -1.08744730843881       -3.28111421924373        0.94168137976510
H           -1.11532515311529       -3.28872035823244       -0.84185709697037
H           -2.51340866921015       -2.68700157937122        0.06976498609318
H            1.46058836356410       -3.01435078756978       -0.02717247242325

          :  Hamiltonian                  GFN2-xTB          :
         :: total energy            -104.877199555946 Eh    ::
         :: gradient norm              0.002700964828 Eh/a0 ::
         :: HOMO-LUMO gap              2.092509796829 eV    ::
         :: SCC energy               -42.700434676159 Eh    ::
         :: -> dispersion             -0.022271312975 Eh    ::
         :: repulsion energy           4.357047280936 Eh    ::

    * Orbital Energies and Occupations

         #    Occupation            Energy/Eh            Energy/eV
      -------------------------------------------------------------
         1        2.0000           -0.9066152             -24.6703
       ...           ...                  ...                  ...
        25        2.0000           -0.6715175             -18.2729
        26        2.0000           -0.6655560             -18.1107
        27        2.0000           -0.6479951             -17.6328
        28        1.9999           -0.6292025             -17.1215
        29        1.9999           -0.6228424             -16.9484
        30        1.9999           -0.6223163             -16.9341
        31        1.9998           -0.6138583             -16.7039
        32        1.9995           -0.6023914             -16.3919
        33        1.9979           -0.5779380             -15.7265
        34        1.9930           -0.5592646             -15.2184
        35        1.9914           -0.5559747             -15.1288
        36        1.9762           -0.5396758             -14.6853
        37        1.8394           -0.5083168             -13.8320 (HOMO)
        38        0.1636           -0.4314185             -11.7395 (LUMO)
        39        0.0319           -0.4044355             -11.0053
        40        0.0076           -0.3815304             -10.3820
        41        0.0000           -0.2830397              -7.7019
        42                         -0.1950226              -5.3068
        43                         -0.1871294              -5.0920
        44                         -0.1341903              -3.6515
        45                         -0.1279753              -3.4824
        46                         -0.0695070              -1.8914
        47                         -0.0430031              -1.1702
        48                         -0.0239738              -0.6524
       ...                                ...                  ...
        67                          8.6227594             234.6372
      -------------------------------------------------------------
                  HL-Gap            0.0768983 Eh            2.0925 eV

     #   Z          covCN         q      C6AA      α(0)
     1   6 C        3.691    -0.091    22.427     6.777
     2   7 N        2.829     0.072    19.984     6.639
     3   6 C        3.049     0.049    26.862     8.500
     4   7 N        2.791    -0.064    22.478     7.042
     5   6 C        3.053     0.104    25.642     8.305
     6   6 C        3.118    -0.009    28.076     8.679
     7   6 C        2.765     0.260    22.620     7.789
     8   8 O        0.857    -0.380    21.280     6.185
     9   7 N        2.749    -0.035    21.921     6.954
    10   6 C        3.698     0.125    18.702     6.185
    11   6 C        1.897    -0.066    32.914     9.266
    12   8 O        1.662    -0.432    21.472     6.255
    13   7 N        2.744     0.030    20.720     6.761
    14   6 C        3.704    -0.080    22.182     6.733
    15   1 H        0.924     0.106     1.731     2.058
    16   1 H        0.925     0.102     1.763     2.076
    17   1 H        0.925     0.133     1.512     1.923
    18   1 H        0.926     0.120     1.612     1.985
    19   1 H        0.923     0.086     1.922     2.168
    20   1 H        0.879     0.376     0.524     1.133
    21   1 H        0.923     0.085     1.925     2.170
    22   1 H        0.924     0.081     1.973     2.197
    23   1 H        0.924     0.081     1.974     2.197
    24   1 H        0.925     0.120     1.610     1.984
    25   1 H        0.860     0.226     0.982     1.553

Wiberg/Mayer (AO) data.
largest (>0.10) Wiberg bond orders for each atom

     #   Z sym  total        # sym  WBO       # sym  WBO       # sym  WBO
 ---------------------------------------------------------------------------
     1   6 C    3.918 --     2 N    0.987    16 H    0.964    17 H    0.962
                            15 H    0.957
     2   7 N    3.651 --     3 C    1.372     6 C    1.157     1 C    0.987
     3   6 C    3.813 --     2 N    1.372     4 N    1.266    18 H    0.954
     4   7 N    3.570 --     3 C    1.266     5 C    1.186    25 H    0.921
     5   6 C    3.933 --     6 C    1.361     4 N    1.186    13 N    1.181
     6   6 C    3.918 --     5 C    1.361     2 N    1.157     7 C    1.086
     7   6 C    3.921 --     8 O    1.685     6 C    1.086     9 N    1.051
     8   8 O    2.013 --     7 C    1.685     9 N    0.129
     9   7 N    3.622 --    11 C    1.378     7 C    1.051    10 C    0.927
                             8 O    0.129
    10   6 C    3.917 --    12 O    1.060    19 H    0.946    21 H    0.942
                             9 N    0.927
    11   6 C    2.862 --     9 N    1.378    13 N    1.277
    12   8 O    2.009 --    10 C    1.060    20 H    0.854
    13   7 N    3.634 --    11 C    1.277     5 C    1.181    14 C    0.982
    14   6 C    3.936 --    13 N    0.982    24 H    0.971    23 H    0.971
                            22 H    0.971
    15   1 H    0.984 --     1 C    0.957
    16   1 H    0.986 --     1 C    0.964
    17   1 H    0.982 --     1 C    0.962
    18   1 H    0.984 --     3 C    0.954
    19   1 H    0.986 --    10 C    0.946
    20   1 H    0.858 --    12 O    0.854
    21   1 H    0.984 --    10 C    0.942
    22   1 H    0.991 --    14 C    0.971
    23   1 H    0.991 --    14 C    0.971
    24   1 H    0.985 --    14 C    0.971
    25   1 H    0.948 --     4 N    0.921
 ---------------------------------------------------------------------------

molecular dipole:
                 x           y           z       tot (Debye)
 q only:        1.840      -2.220       0.014
   full:        2.388      -2.525      -0.102       8.837

           -------------------------------------------------
          | TOTAL ENERGY             -104.877199555946 Eh   |
          | GRADIENT NORM               0.002700964828 Eh/α |
          | HOMO-LUMO GAP               2.092509796829 eV   |
           -------------------------------------------------

 * finished run on 2024/06/05 at 19:57:55.821
