   * xtb version 6.6.1 (8d0f1dd) compiled by 'conda@1efc2f54142f' on 2023-08-01
          program call               : xtb xtbopt.xyz --opt crude --input .xc2 --gfn2

   ID    Z sym.   atoms
    1    7 N      1, 17
    2    6 C      2-6, 8, 9, 11-16, 18-23, 25, 26, 28-33
    3    8 O      7, 10, 24, 27
    4    1 H      34-72

          :  Hamiltonian                  GFN2-xTB          :
 * total energy  :   -99.3563769 Eh     change       -0.8895995E-11 Eh
   *** GEOMETRY OPTIMIZATION CONVERGED AFTER 1 ITERATIONS ***

 final structure:
================
72
 xtb: 6.6.1 (8d0f1dd)
N           -1.80279947535263        3.84921471598741        1.36742193553157
C           -2.08693186548882        2.83634316498940        0.55210885187994
C           -3.61258772996000        2.35895157396385        0.40440469268851
C           -3.74793383784456        0.88215924158281        0.25971440542566
C           -4.49907402807624        0.37593544444876       -0.80108742241710
C           -4.69771298696522       -0.98781727833274       -0.95150060155065
O           -5.40996973942572       -1.57053442622125       -1.93322020887528
C           -6.07537926763164       -0.76404167689006       -2.87778607253963
C           -4.12344515834729       -1.88471481753669       -0.00710417716615
O           -4.37070388146149       -3.19100458660400       -0.22544307860046
C           -3.93251944528342       -4.14167786237935        0.71746693078559
C           -3.36812607398123       -1.36931196188137        1.03690861208065
C           -3.18069442465352       -0.00147047689693        1.16746935877323
C           -2.94558233327654        3.09560668397141       -0.68778058386515
C           -1.30334764616498       -0.23661465667767       -2.16043914610031
C           -0.17428398054792        0.12397810201199       -1.53734801459194
N            0.49222203690564       -0.58928634388514       -0.58812845012220
C            1.84620414880532       -0.23497059014292       -0.25637103773285
C            2.87181601613803       -0.85689800885933       -1.23113833791739
C            4.27039596808750       -0.48703019913974       -0.83802027794554
C            4.82168414937407        0.72418341517522       -1.23622582409616
C            6.10837287437716        1.07716208669910       -0.86536839893730
C            6.87733963985485        0.22531267288457       -0.08196662755188
O            8.13492393945306        0.45650026532884        0.32878229045704
C            8.78580828423031        1.64328583564962       -0.06407770431514
C            6.31912787255983       -1.01643557985806        0.33885713569697
O            7.13071032473407       -1.78152955909525        1.09017997891147
C            6.68589040302291       -3.04484928883939        1.52603586869746
C            5.02652057792246       -1.34447655948387       -0.04357766087332
C            0.03473415862547       -1.90865460218258       -0.23655651736994
C           -4.67274270188783        2.99587674589067        1.29157207540374
C           -4.49944365214659        2.56389678355627        2.74837143680894
C           -4.71699098362054        4.51655624630193        1.20410443103349
H           -4.94046638143351        1.06991457525598       -1.49842310316437
H           -6.79682047183097       -0.09701403289855       -2.39702050802060
H           -6.60362876046119       -1.45603461398860       -3.53082993242407
H           -5.36922409809554       -0.17423275062430       -3.47008055826604
H           -4.33667799723809       -3.93472812351104        1.71259330581164
H           -4.31276200232670       -5.09868141369235        0.36555900174110
H           -2.83948551449243       -4.18394058656257        0.76825295166881
H           -2.93252761315638       -2.02966693691323        1.77001471555422
H           -2.58343873181459        0.37079054635193        1.98507893607443
H           -3.20459999511813        4.12818758775510       -0.85444686365887
H           -2.65398704451414        2.54374274147762       -1.57019399887346
H           -1.79807168850509       -1.17546176485587       -1.99886938548126
H           -1.75489129763164        0.42473271483553       -2.87552054573748
H           -1.40676772535838        1.98136143670677        0.46525421989665
H            0.27863686463604        1.08135786653500       -1.76063844843751
H            2.06318545667288       -0.57561678185435        0.75978787277398
H            1.94776888523180        0.85299339734285       -0.27989527179372
H            2.65593583098337       -0.49356764012434       -2.23754218704436
H            2.75526200248661       -1.94138518686688       -1.22334876826572
H            4.24853537575542        1.39822943415618       -1.85428512071002
H            6.51106183393130        2.02025287069345       -1.19691218370287
H            8.27164471550152        2.52840670665248        0.32215831250249
H            8.86701294520359        1.71303481263647       -1.15272299098991
H            9.78230480165037        1.58664881908403        0.36975958324029
H            7.51652904587586       -3.46959835464589        2.08630911456103
H            5.81399787722092       -2.95821934347049        2.18181758125020
H            6.44672640402703       -3.69796719781252        0.68142462209910
H            4.59805766480480       -2.28565239999240        0.26354554545748
H            0.15238956971134       -2.61597164540797       -1.06398263667323
H           -1.02200680872044       -1.86282095340221        0.03097447461139
H            0.59972897770951       -2.27044133906071        0.61990804874354
H           -5.63263488322334        2.59560062658061        0.93497129006306
H           -3.54706091122939        2.93107223144474        3.12553600018531
H           -4.53351718921578        1.48154545691164        2.84655571469538
H           -5.29493380778964        2.98543422473298        3.35651972118251
H           -3.73906198141623        4.92486051530120        1.44988345512903
H           -5.01214288761919        4.85119212659798        0.21348705159498
H           -5.44282136614828        4.89809382014297        1.91698519392144
H           -1.03021467865759        3.70404357337146        1.99934277160800

          :  Hamiltonian                  GFN2-xTB          :
         :: total energy             -99.356376897365 Eh    ::
         :: gradient norm              0.003761556348 Eh/a0 ::
         :: HOMO-LUMO gap              0.779477604750 eV    ::
         :: SCC energy              -100.750105771946 Eh    ::
         :: -> dispersion             -0.071900569016 Eh    ::
         :: repulsion energy           1.392448908151 Eh    ::

    * Orbital Energies and Occupations

         #    Occupation            Energy/Eh            Energy/eV
      -------------------------------------------------------------
         1        2.0000           -0.8175936             -22.2479
       ...           ...                  ...                  ...
        78        1.9976           -0.5357850             -14.5795
        79        1.9970           -0.5320948             -14.4790
        80        1.9958           -0.5271012             -14.3432
        81        1.9948           -0.5235734             -14.2472
        82        1.9939           -0.5210192             -14.1777
        83        1.9925           -0.5177177             -14.0878
        84        1.9907           -0.5144408             -13.9986
        85        1.9728           -0.4972358             -13.5305
        86        1.9656           -0.4934707             -13.4280
        87        1.8679           -0.4713618             -12.8264
        88        1.8163           -0.4656877             -12.6720
        89        1.8011           -0.4643008             -12.6343
        90        1.6868           -0.4560744             -12.4104 (HOMO)
        91        0.9375           -0.4274291             -11.6309 (LUMO)
        92        0.0024           -0.3231289              -8.7928
        93        0.0020           -0.3201077              -8.7106
        94        0.0017           -0.3171956              -8.6313
        95        0.0015           -0.3153043              -8.5799
        96        0.0003           -0.2915915              -7.9346
        97        0.0000           -0.1978323              -5.3833
        98        0.0000           -0.1920002              -5.2246
        99        0.0000           -0.1734587              -4.7201
       100                         -0.0993649              -2.7039
       101                         -0.0707443              -1.9251
       ...                                ...                  ...
       171                          0.5691460              15.4873
      -------------------------------------------------------------
                  HL-Gap            0.0286453 Eh            0.7795 eV

     #   Z          covCN         q      C6AA      α(0)
     1   7 N        1.773    -0.312    28.905     7.961
     2   6 C        3.773     0.100    18.971     6.206
     3   6 C        3.907     0.028    20.045     6.364
     4   6 C        2.970     0.002    27.982     8.677
     5   6 C        2.920    -0.073    29.830     8.956
     6   6 C        2.862     0.136    25.037     8.202
     7   8 O        1.706    -0.221    17.668     5.675
     8   6 C        3.645     0.025    20.499     6.507
     9   6 C        2.864     0.131    25.123     8.216
    10   8 O        1.706    -0.224    17.714     5.682
    11   6 C        3.645     0.025    20.482     6.505
    12   6 C        2.913    -0.072    29.790     8.950
    13   6 C        2.920    -0.045    29.119     8.849
    14   6 C        3.809    -0.068    21.787     6.644
    15   6 C        2.838    -0.120    31.051     9.132
    16   6 C        2.841     0.020    27.549     8.602
    17   7 N        2.732    -0.047    22.141     6.989
    18   6 C        3.752    -0.007    20.753     6.496
    19   6 C        3.807    -0.071    21.849     6.654
    20   6 C        2.967     0.009    27.825     8.652
    21   6 C        2.922    -0.044    29.086     8.844
    22   6 C        2.913    -0.065    29.612     8.923
    23   6 C        2.864     0.136    25.024     8.200
    24   8 O        1.706    -0.213    17.540     5.655
    25   6 C        3.645     0.023    20.529     6.512
    26   6 C        2.862     0.136    25.024     8.200
    27   8 O        1.706    -0.216    17.593     5.663
    28   6 C        3.645     0.025    20.497     6.507
    29   6 C        2.919    -0.076    29.902     8.967
    30   6 C        3.700    -0.057    21.768     6.672
    31   6 C        3.852    -0.003    20.606     6.456
    32   6 C        3.756    -0.113    22.715     6.795
    33   6 C        3.755    -0.124    22.938     6.829
    34   1 H        0.926     0.058     2.221     2.330
    35   1 H        0.924     0.057     2.236     2.338
    36   1 H        0.925     0.084     1.935     2.175
    37   1 H        0.924     0.054     2.268     2.355
    38   1 H        0.924     0.057     2.229     2.335
    39   1 H        0.925     0.084     1.938     2.177
    40   1 H        0.924     0.049     2.334     2.389
    41   1 H        0.926     0.054     2.268     2.355
    42   1 H        0.926     0.052     2.292     2.368
    43   1 H        0.926     0.088     1.902     2.157
    44   1 H        0.926     0.057     2.235     2.338
    45   1 H        0.926     0.046     2.374     2.409
    46   1 H        0.926     0.046     2.373     2.409
    47   1 H        0.924     0.014     2.824     2.628
    48   1 H        0.925     0.049     2.328     2.386
    49   1 H        0.924     0.055     2.254     2.348
    50   1 H        0.924     0.059     2.216     2.328
    51   1 H        0.924     0.057     2.237     2.339
    52   1 H        0.924     0.054     2.266     2.354
    53   1 H        0.926     0.053     2.287     2.365
    54   1 H        0.926     0.062     2.174     2.305
    55   1 H        0.924     0.059     2.214     2.327
    56   1 H        0.924     0.060     2.200     2.320
    57   1 H        0.925     0.086     1.922     2.168
    58   1 H        0.925     0.085     1.930     2.172
    59   1 H        0.924     0.054     2.272     2.357
    60   1 H        0.924     0.057     2.235     2.338
    61   1 H        0.926     0.054     2.276     2.359
    62   1 H        0.924     0.061     2.192     2.315
    63   1 H        0.924     0.065     2.136     2.286
    64   1 H        0.925     0.062     2.176     2.307
    65   1 H        0.923     0.055     2.256     2.349
    66   1 H        0.925     0.055     2.257     2.349
    67   1 H        0.925     0.041     2.436     2.441
    68   1 H        0.925     0.056     2.246     2.344
    69   1 H        0.925     0.085     1.930     2.173
    70   1 H        0.925     0.046     2.368     2.407
    71   1 H        0.925     0.057     2.230     2.335
    72   1 H        0.860     0.150     1.404     1.856

Wiberg/Mayer (AO) data.
largest (>0.10) Wiberg bond orders for each atom

     #   Z sym  total        # sym  WBO       # sym  WBO       # sym  WBO
 ---------------------------------------------------------------------------
     1   7 N    2.405 --     2 C    1.363    72 H    0.948
     2   6 C    3.854 --     1 N    1.363    47 H    0.940    14 C    0.841
                             3 C    0.681
     3   6 C    3.748 --     4 C    1.004    14 C    1.003    31 C    0.978
                             2 C    0.681
     4   6 C    3.936 --    13 C    1.395     5 C    1.369     3 C    1.004
     5   6 C    3.945 --     6 C    1.391     4 C    1.369    34 H    0.962
     6   6 C    3.894 --     5 C    1.391     9 C    1.215     7 O    1.110
     7   8 O    2.254 --     6 C    1.110     8 C    0.975
     8   6 C    3.927 --    36 H    0.976     7 O    0.975    35 H    0.972
                            37 H    0.972
     9   6 C    3.885 --    12 C    1.382     6 C    1.215    10 O    1.107
    10   8 O    2.248 --     9 C    1.107    11 C    0.977
    11   6 C    3.929 --    10 O    0.977    39 H    0.976    38 H    0.973
                            40 H    0.972
    12   6 C    3.958 --    13 C    1.413     9 C    1.382    41 H    0.962
    13   6 C    3.935 --    12 C    1.413     4 C    1.395    42 H    0.966
    14   6 C    3.855 --     3 C    1.003    44 H    0.968    43 H    0.965
                             2 C    0.841
    15   6 C    3.801 --    16 C    1.731    46 H    0.977    45 H    0.973
    16   6 C    3.943 --    15 C    1.731    17 N    1.203    48 H    0.957
    17   7 N    3.352 --    16 C    1.203    30 C    1.007    18 C    1.006
    18   6 C    3.961 --    17 N    1.006    49 H    0.968    50 H    0.968
                            19 C    0.959
    19   6 C    3.970 --    20 C    1.016    52 H    0.972    51 H    0.969
                            18 C    0.959
    20   6 C    3.924 --    21 C    1.387    29 C    1.385    19 C    1.016
    21   6 C    3.926 --    22 C    1.428    20 C    1.387    53 H    0.967
    22   6 C    3.948 --    21 C    1.428    23 C    1.371    54 H    0.962
    23   6 C    3.871 --    22 C    1.371    26 C    1.207    24 O    1.120
    24   8 O    2.249 --    23 C    1.120    25 C    0.974
    25   6 C    3.923 --    57 H    0.976    24 O    0.974    56 H    0.971
                            55 H    0.971
    26   6 C    3.878 --    29 C    1.386    23 C    1.207    27 O    1.114
    27   8 O    2.250 --    26 C    1.114    28 C    0.976
    28   6 C    3.927 --    58 H    0.976    27 O    0.976    59 H    0.972
                            60 H    0.972
    29   6 C    3.948 --    26 C    1.386    20 C    1.385    61 H    0.961
    30   6 C    3.965 --    17 N    1.007    64 H    0.980    63 H    0.966
                            62 H    0.966
    31   6 C    3.968 --    33 C    1.008    32 C    0.996     3 C    0.978
                            65 H    0.937
    32   6 C    3.973 --    31 C    0.996    68 H    0.982    67 H    0.980
                            66 H    0.978
    33   6 C    3.964 --    31 C    1.008    70 H    0.979    71 H    0.978
                            69 H    0.959
    34   1 H    0.995 --     5 C    0.962
    35   1 H    0.991 --     8 C    0.972
    36   1 H    0.992 --     8 C    0.976
    37   1 H    0.991 --     8 C    0.972
    38   1 H    0.991 --    11 C    0.973
    39   1 H    0.992 --    11 C    0.976
    40   1 H    0.992 --    11 C    0.972
    41   1 H    0.995 --    12 C    0.962
    42   1 H    0.996 --    13 C    0.966
    43   1 H    0.988 --    14 C    0.965
    44   1 H    0.989 --    14 C    0.968
    45   1 H    0.997 --    15 C    0.973
    46   1 H    0.997 --    15 C    0.977
    47   1 H    0.974 --     2 C    0.940
    48   1 H    0.997 --    16 C    0.957
    49   1 H    0.993 --    18 C    0.968
    50   1 H    0.994 --    18 C    0.968
    51   1 H    0.994 --    19 C    0.969
    52   1 H    0.995 --    19 C    0.972
    53   1 H    0.996 --    21 C    0.967
    54   1 H    0.994 --    22 C    0.962
    55   1 H    0.989 --    25 C    0.971
    56   1 H    0.989 --    25 C    0.971
    57   1 H    0.992 --    25 C    0.976
    58   1 H    0.992 --    28 C    0.976
    59   1 H    0.990 --    28 C    0.972
    60   1 H    0.990 --    28 C    0.972
    61   1 H    0.995 --    29 C    0.961
    62   1 H    0.982 --    30 C    0.966
    63   1 H    0.989 --    30 C    0.966
    64   1 H    0.995 --    30 C    0.980
    65   1 H    0.973 --    31 C    0.937
    66   1 H    0.993 --    32 C    0.978
    67   1 H    0.996 --    32 C    0.980
    68   1 H    0.994 --    32 C    0.982
    69   1 H    0.985 --    33 C    0.959
    70   1 H    0.994 --    33 C    0.979
    71   1 H    0.992 --    33 C    0.978
    72   1 H    0.968 --     1 N    0.948
 ---------------------------------------------------------------------------

molecular dipole:
                 x           y           z       tot (Debye)
 q only:        0.468      -0.236      -0.182
   full:        0.662      -0.515      -0.236       2.214

           -------------------------------------------------
          | TOTAL ENERGY              -99.356376897365 Eh   |
          | GRADIENT NORM               0.003761556348 Eh/α |
          | HOMO-LUMO GAP               0.779477604750 eV   |
           -------------------------------------------------

 * finished run on 2024/04/06 at 11:13:13.004
