   * xtb version 6.6.1 (8d0f1dd) compiled by 'conda@1efc2f54142f' on 2023-08-01
          program call               : xtb struc.xyz --opt loose --input .xc1 --gfn2

   ID    Z sym.   atoms
    1    6 C      1, 3, 5-7, 10, 11, 14
    2    7 N      2, 4, 9, 13
    3    8 O      8, 12
    4    1 H      15-25
constraining bond 2 8 to    5.6800000 Å, actual value:    3.0543308 Å

          :  Hamiltonian                  GFN2-xTB          :
 * total energy  :   -29.9503443 Eh     change       -0.2401990E-09 Eh
 * total energy  :   -34.4831665 Eh     change       -0.4532822E+01 Eh
 * total energy  :   -37.8830183 Eh     change       -0.3399852E+01 Eh
 * total energy  :   -40.1501835 Eh     change       -0.2267165E+01 Eh
 * total energy  :   -41.3519094 Eh     change       -0.1201726E+01 Eh
 * total energy  :   -41.7186283 Eh     change       -0.3667190E+00 Eh
 * total energy  :   -41.7580689 Eh     change       -0.3944058E-01 Eh
 * total energy  :   -41.7841715 Eh     change       -0.2610263E-01 Eh
 * total energy  :   -41.8323779 Eh     change       -0.4820636E-01 Eh
 * total energy  :   -41.8534710 Eh     change       -0.2109306E-01 Eh
 * total energy  :   -42.1128463 Eh     change       -0.1896185E-03 Eh
 * total energy  :   -42.1129213 Eh     change       -0.7498278E-04 Eh
 * total energy  :   -42.1130909 Eh     change       -0.1695669E-03 Eh
 * total energy  :   -42.1131779 Eh     change       -0.8699624E-04 Eh
 * total energy  :   -42.1133198 Eh     change       -0.1419766E-03 Eh
 * total energy  :   -42.1133792 Eh     change       -0.5936054E-04 Eh
 * total energy  :   -42.1134316 Eh     change       -0.5238251E-04 Eh
 * total energy  :   -42.1134834 Eh     change       -0.5181659E-04 Eh
 * total energy  :   -42.1135143 Eh     change       -0.3087991E-04 Eh
   *** GEOMETRY OPTIMIZATION CONVERGED AFTER 65 ITERATIONS ***

 final structure:
================
25
 xtb: 6.6.1 (8d0f1dd)
C            3.61963483828465        0.61920745309744        0.06347659501395
N            3.70565104980043       -0.76003617125126       -0.19809353846715
C            2.76199853498554       -1.58175658890734       -0.32617595033393
N            1.38046209980457       -1.46771553829416       -0.24210740984835
C            0.42980329650366       -0.50342325244413       -0.01260434226840
C            0.57516009645922        0.86577610036675        0.10182718636561
C           -0.52241450695267        1.69625936871515        0.15134452610292
O           -0.49666231571027        2.99969645372507        0.41442922041616
N           -1.77579060986821        1.14739504532393       -0.16637857136559
C           -2.84384073406894        1.88872144609912       -0.50588938977840
C           -1.98223836293630       -0.25329297053022       -0.01237281720504
O           -3.09743079376665       -0.71035891670955       -0.01803783951488
N           -0.85538700670604       -1.02566014634889        0.14849532779496
C           -1.10317749768025       -2.43206536588564        0.43325965149564
H            4.10086979627153        0.83046056769700        1.02141847872417
H            4.17257409010719        1.15642934248495       -0.71100449490003
H            2.56355359412089        0.99451402457301        0.09396055824852
H            3.05685704572020       -2.60469857647208       -0.53650546966699
H           -1.37410112028059        3.37574383799262        0.58173693903866
H           -2.73768625719099        2.92574406969103       -0.76294282550056
H           -3.78241015917214        1.38071419916170       -0.63046192461639
H           -0.42245221597970       -2.78797918772242        1.20468123188655
H           -1.03202597025591       -3.04793518983003       -0.46625036123873
H           -2.12573442801107       -2.51742760061521        0.79997119960854
H            0.94521905062238       -2.37007386231689       -0.39460436209194

          :  Hamiltonian                  GFN2-xTB          :
         :: total energy             -42.113514287473 Eh    ::
         :: gradient norm              0.003606917741 Eh/a0 ::
         :: HOMO-LUMO gap              0.579898983563 eV    ::
         :: SCC energy               -42.625043108792 Eh    ::
         :: -> dispersion             -0.021699966689 Eh    ::
         :: repulsion energy           0.511318862893 Eh    ::

    * Orbital Energies and Occupations

         #    Occupation            Energy/Eh            Energy/eV
      -------------------------------------------------------------
         1        2.0000           -0.8909371             -24.2436
       ...           ...                  ...                  ...
        25        1.9985           -0.6617903             -18.0082
        26        1.9979           -0.6542922             -17.8042
        27        1.9974           -0.6488258             -17.6554
        28        1.9969           -0.6443311             -17.5331
        29        1.9958           -0.6370832             -17.3359
        30        1.9945           -0.6309178             -17.1681
        31        1.9899           -0.6162384             -16.7687
        32        1.9863           -0.6090465             -16.5730
        33        1.9703           -0.5905232             -16.0690
        34        1.9288           -0.5692277             -15.4895
        35        1.8557           -0.5515250             -15.0078
        36        1.8183           -0.5455690             -14.8457
        37        1.3713           -0.5093877             -13.8611 (HOMO)
        38        0.9414           -0.4880768             -13.2812 (LUMO)
        39        0.1295           -0.4274341             -11.6311
        40        0.0216           -0.3835764             -10.4376
        41        0.0095           -0.3639183              -9.9027
        42        0.0005           -0.2945443              -8.0150
        43        0.0000           -0.1946184              -5.2958
        44        0.0000           -0.1631598              -4.4398
        45        0.0000           -0.1421586              -3.8683
        46        0.0000           -0.1048254              -2.8524
        47                         -0.0902391              -2.4555
        48                         -0.0426270              -1.1599
       ...                                ...                  ...
        67                          0.5054580              13.7542
      -------------------------------------------------------------
                  HL-Gap            0.0213109 Eh            0.5799 eV

     #   Z          covCN         q      C6AA      α(0)
     1   6 C        3.695    -0.055    21.746     6.671
     2   7 N        1.821    -0.114    24.247     7.296
     3   6 C        2.764     0.108    25.597     8.285
     4   7 N        2.691    -0.108    23.363     7.179
     5   6 C        2.832     0.129    25.165     8.221
     6   6 C        1.980    -0.143    35.108     9.569
     7   6 C        2.782     0.209    23.568     7.952
     8   8 O        1.660    -0.312    19.227     5.919
     9   7 N        2.741    -0.019    21.618     6.905
    10   6 C        2.802    -0.047    29.163     8.847
    11   6 C        2.741     0.311    21.721     7.631
    12   8 O        0.859    -0.357    20.847     6.122
    13   7 N        2.750    -0.068    22.553     7.053
    14   6 C        3.703    -0.071    22.021     6.710
    15   1 H        0.924     0.114     1.664     2.018
    16   1 H        0.924     0.116     1.649     2.008
    17   1 H        0.919     0.106     1.736     2.060
    18   1 H        0.925     0.100     1.789     2.091
    19   1 H        0.804     0.347     0.595     1.212
    20   1 H        0.926     0.102     1.769     2.080
    21   1 H        0.926     0.130     1.533     1.936
    22   1 H        0.925     0.089     1.885     2.147
    23   1 H        0.924     0.088     1.899     2.155
    24   1 H        0.925     0.127     1.558     1.952
    25   1 H        0.860     0.221     1.007     1.572

Wiberg/Mayer (AO) data.
largest (>0.10) Wiberg bond orders for each atom

     #   Z sym  total        # sym  WBO       # sym  WBO       # sym  WBO
 ---------------------------------------------------------------------------
     1   6 C    3.824 --     2 N    1.075    16 H    0.926    15 H    0.926
                            17 H    0.847
     2   7 N    2.963 --     3 C    1.736     1 C    1.075
     3   6 C    3.892 --     2 N    1.736     4 N    1.124    18 H    0.935
     4   7 N    3.431 --     5 C    1.180     3 C    1.124    25 H    0.906
     5   6 C    3.773 --     6 C    1.362     4 N    1.180    13 N    1.097
     6   6 C    3.093 --     7 C    1.393     5 C    1.362
     7   6 C    3.746 --     6 C    1.393     8 O    1.168     9 N    1.054
     8   8 O    2.169 --     7 C    1.168    19 H    0.842
     9   7 N    3.565 --    10 C    1.314     7 C    1.054    11 C    0.998
    10   6 C    3.340 --     9 N    1.314    20 H    0.959    21 H    0.954
    11   6 C    3.897 --    12 O    1.672    13 N    1.140     9 N    0.998
    12   8 O    1.963 --    11 C    1.672    13 N    0.134
    13   7 N    3.485 --    11 C    1.140     5 C    1.097    14 C    0.975
                            12 O    0.134
    14   6 C    3.912 --    13 N    0.975    22 H    0.967    23 H    0.957
                            24 H    0.954
    15   1 H    0.959 --     1 C    0.926
    16   1 H    0.955 --     1 C    0.926
    17   1 H    0.936 --     1 C    0.847
    18   1 H    0.976 --     3 C    0.935
    19   1 H    0.878 --     8 O    0.842
    20   1 H    0.986 --    10 C    0.959
    21   1 H    0.976 --    10 C    0.954
    22   1 H    0.986 --    14 C    0.967
    23   1 H    0.982 --    14 C    0.957
    24   1 H    0.977 --    14 C    0.954
    25   1 H    0.949 --     4 N    0.906
 ---------------------------------------------------------------------------

molecular dipole:
                 x           y           z       tot (Debye)
 q only:        0.809      -0.118      -0.003
   full:        0.214      -0.156      -0.042       0.682

           -------------------------------------------------
          | TOTAL ENERGY              -42.113514287473 Eh   |
          | GRADIENT NORM               0.003606917741 Eh/α |
          | HOMO-LUMO GAP               0.579898983563 eV   |
           -------------------------------------------------

 * finished run on 2024/06/05 at 19:58:43.000
