   * xtb version 6.6.1 (8d0f1dd) compiled by 'conda@1efc2f54142f' on 2023-08-01
          program call               : xtb xtbopt.xyz --opt crude --input .xc2 --gfn2

   ID    Z sym.   atoms
    1    6 C      1, 3, 5-7, 10, 11, 14
    2    7 N      2, 4, 9, 13
    3    8 O      8, 12
    4    1 H      15-25
########################################################################
[WARNING] Please study the warnings concerning your input carefully
-1- readin_getIntValue: could not parse ''
########################################################################

          :  Hamiltonian                  GFN2-xTB          :
 * total energy  :   -42.1136320 Eh     change       -0.2835066E-11 Eh
 * total energy  :   -42.1168101 Eh     change       -0.3178030E-02 Eh
 * total energy  :   -42.1203657 Eh     change       -0.3555623E-02 Eh
 * total energy  :   -42.1223972 Eh     change       -0.2031550E-02 Eh
 * total energy  :   -42.1240815 Eh     change       -0.1684249E-02 Eh
 * total energy  :   -42.1266271 Eh     change       -0.2545604E-02 Eh
 * total energy  :   -42.1306791 Eh     change       -0.4052037E-02 Eh
 * total energy  :   -42.1322097 Eh     change       -0.1530624E-02 Eh
 * total energy  :   -42.1358616 Eh     change       -0.3651831E-02 Eh
 * total energy  :   -42.1386789 Eh     change       -0.2817284E-02 Eh
 * total energy  :   -42.1434997 Eh     change       -0.4820835E-02 Eh
 * total energy  :   -42.1460847 Eh     change       -0.2585051E-02 Eh
 * total energy  :   -42.1482670 Eh     change       -0.2182300E-02 Eh
 * total energy  :   -42.1499673 Eh     change       -0.1700291E-02 Eh
 * total energy  :   -42.1513811 Eh     change       -0.1413800E-02 Eh
 * total energy  :   -42.1524614 Eh     change       -0.1080223E-02 Eh
 * total energy  :   -42.1531044 Eh     change       -0.6430034E-03 Eh
 * total energy  :   -42.1534009 Eh     change       -0.2965529E-03 Eh
   *** GEOMETRY OPTIMIZATION CONVERGED AFTER 18 ITERATIONS ***

 final structure:
================
25
 xtb: 6.6.1 (8d0f1dd)
C            3.80666198507428        0.64787090772529        0.09827806532435
N            3.50191656568358       -0.49428105540484       -0.39601591046715
C            2.76123681990578       -1.53237242405135       -0.28239787753513
N            1.41659988089781       -1.60852766811514       -0.03411439242445
C            0.44555087525697       -0.64403393969077        0.02924073865534
C            0.65793150753290        0.73042297060629       -0.01257219469548
C           -0.41029931996387        1.60855849351175       -0.03477019806093
O           -0.16670726424140        2.91489354610165       -0.04587669201901
N           -1.70430781372423        1.13854267725627       -0.07504482481040
C           -2.78757240629490        1.92961448285425       -0.23811350395851
C           -1.95791056202966       -0.25542110701172        0.07819421103642
O           -3.08996090111960       -0.66313342221773        0.14526525249852
N           -0.85959264469337       -1.09169520372556        0.13719567098581
C           -1.16577245239041       -2.50676819966630        0.28249944064700
H            3.68700379612237        0.88552274826809        1.15363515176731
H            4.33574361537338        1.34706578628233       -0.53576337542017
H            1.63972672899748        1.16311235920265       -0.02385536359550
H            3.20642977377681       -2.48626747092936       -0.53702872095197
H           -0.95789770588684        3.45208868523915        0.11411839597282
H           -2.69184018299648        2.96411397994037       -0.49939676641973
H           -3.74815111782521        1.45444197597087       -0.20844356476753
H           -0.63981235508902       -2.93188363573207        1.13901662368816
H           -0.93711997014655       -3.05751037741656       -0.63239733974123
H           -2.23818113552168       -2.59070498399046        0.46341414117948
H            1.05675579740242       -2.55541058340763       -0.05389534898900

          :  Hamiltonian                  GFN2-xTB          :
         :: total energy             -42.153400920502 Eh    ::
         :: gradient norm              0.009463754774 Eh/a0 ::
         :: HOMO-LUMO gap              0.939719337948 eV    ::
         :: SCC energy               -42.692089664183 Eh    ::
         :: -> dispersion             -0.022055068459 Eh    ::
         :: repulsion energy           0.538598423213 Eh    ::

    * Orbital Energies and Occupations

         #    Occupation            Energy/Eh            Energy/eV
      -------------------------------------------------------------
         1        2.0000           -0.8866090             -24.1259
       ...           ...                  ...                  ...
        25        1.9996           -0.6693363             -18.2136
        26        1.9992           -0.6543612             -17.8061
        27        1.9991           -0.6492623             -17.6673
        28        1.9988           -0.6432530             -17.5038
        29        1.9981           -0.6325899             -17.2136
        30        1.9975           -0.6261263             -17.0378
        31        1.9963           -0.6167488             -16.7826
        32        1.9957           -0.6126967             -16.6723
        33        1.9923           -0.5990542             -16.3011
        34        1.9804           -0.5765825             -15.6896
        35        1.9694           -0.5659592             -15.4005
        36        1.9537           -0.5558892             -15.1265
        37        1.2850           -0.4809373             -13.0870 (HOMO)
        38        0.5914           -0.4464033             -12.1473 (LUMO)
        39        0.1634           -0.4095486             -11.1444
        40        0.0560           -0.3827659             -10.4156
        41        0.0245           -0.3627742              -9.8716
        42        0.0010           -0.2865956              -7.7987
        43        0.0000           -0.1899835              -5.1697
        44        0.0000           -0.1489527              -4.0532
        45        0.0000           -0.1275970              -3.4721
        46        0.0000           -0.0985710              -2.6823
        47        0.0000           -0.0786893              -2.1412
        48                         -0.0539641              -1.4684
       ...                                ...                  ...
        67                          0.5845299              15.9059
      -------------------------------------------------------------
                  HL-Gap            0.0345341 Eh            0.9397 eV

     #   Z          covCN         q      C6AA      α(0)
     1   6 C        2.769    -0.007    28.182     8.694
     2   7 N        1.823    -0.062    23.178     7.134
     3   6 C        2.758     0.083    26.122     8.370
     4   7 N        2.690    -0.098    23.155     7.147
     5   6 C        2.834     0.109    25.583     8.289
     6   6 C        2.906    -0.103    30.609     9.072
     7   6 C        2.786     0.194    23.854     8.000
     8   8 O        1.661    -0.333    19.585     5.974
     9   7 N        2.739    -0.011    21.475     6.883
    10   6 C        2.806    -0.068    29.668     8.924
    11   6 C        2.741     0.305    21.817     7.648
    12   8 O        0.859    -0.366    21.009     6.145
    13   7 N        2.745    -0.058    22.362     7.023
    14   6 C        3.704    -0.077    22.122     6.725
    15   1 H        0.925     0.093     1.847     2.125
    16   1 H        0.925     0.112     1.678     2.026
    17   1 H        0.926     0.105     1.739     2.062
    18   1 H        0.925     0.104     1.745     2.065
    19   1 H        0.804     0.346     0.598     1.215
    20   1 H        0.926     0.086     1.922     2.168
    21   1 H        0.926     0.123     1.592     1.973
    22   1 H        0.924     0.084     1.940     2.178
    23   1 H        0.924     0.083     1.944     2.181
    24   1 H        0.924     0.131     1.526     1.932
    25   1 H        0.860     0.223     0.995     1.563

Wiberg/Mayer (AO) data.
largest (>0.10) Wiberg bond orders for each atom

     #   Z sym  total        # sym  WBO       # sym  WBO       # sym  WBO
 ---------------------------------------------------------------------------
     1   6 C    3.598 --     2 N    1.614    16 H    0.947    15 H    0.932
     2   7 N    3.247 --     1 C    1.614     3 C    1.508
     3   6 C    3.736 --     2 N    1.508     4 N    1.177    18 H    0.932
     4   7 N    3.474 --     3 C    1.177     5 C    1.166    25 H    0.905
     5   6 C    3.767 --     6 C    1.330     4 N    1.166    13 N    1.132
     6   6 C    3.871 --     7 C    1.363     5 C    1.330    17 H    0.938
     7   6 C    3.758 --     6 C    1.363     8 O    1.147     9 N    1.122
     8   8 O    2.150 --     7 C    1.147    19 H    0.843
     9   7 N    3.602 --    10 C    1.271     7 C    1.122    11 C    0.998
    10   6 C    3.338 --     9 N    1.271    20 H    0.961    21 H    0.959
    11   6 C    3.888 --    12 O    1.671    13 N    1.125     9 N    0.998
    12   8 O    1.981 --    11 C    1.671    13 N    0.137
    13   7 N    3.505 --     5 C    1.132    11 C    1.125    14 C    0.979
                            12 O    0.137
    14   6 C    3.924 --    13 N    0.979    22 H    0.966    23 H    0.963
                            24 H    0.956
    15   1 H    0.968 --     1 C    0.932
    16   1 H    0.974 --     1 C    0.947
    17   1 H    0.986 --     6 C    0.938
    18   1 H    0.977 --     3 C    0.932
    19   1 H    0.879 --     8 O    0.843
    20   1 H    0.990 --    10 C    0.961
    21   1 H    0.982 --    10 C    0.959
    22   1 H    0.987 --    14 C    0.966
    23   1 H    0.986 --    14 C    0.963
    24   1 H    0.980 --    14 C    0.956
    25   1 H    0.948 --     4 N    0.905
 ---------------------------------------------------------------------------

molecular dipole:
                 x           y           z       tot (Debye)
 q only:        1.528      -0.302       0.050
   full:        1.408      -0.238       0.124       3.644

           -------------------------------------------------
          | TOTAL ENERGY              -42.153400920502 Eh   |
          | GRADIENT NORM               0.009463754774 Eh/α |
          | HOMO-LUMO GAP               0.939719337948 eV   |
           -------------------------------------------------

 * finished run on 2024/06/05 at 19:58:43.636
