   * xtb version 6.6.1 (8d0f1dd) compiled by 'conda@1efc2f54142f' on 2023-08-01
          program call               : xtb xtbopt.xyz --opt crude --input .xc2 --gfn2

   ID    Z sym.   atoms
    1    7 N      1, 17
    2    6 C      2-6, 8, 9, 11-16, 18-23, 25, 26, 28-33
    3    8 O      7, 10, 24, 27
    4    1 H      34-72

          :  Hamiltonian                  GFN2-xTB          :
 * total energy  :   -99.3269498 Eh     change       -0.7190692E-11 Eh
   *** GEOMETRY OPTIMIZATION CONVERGED AFTER 1 ITERATIONS ***

 final structure:
================
72
 xtb: 6.6.1 (8d0f1dd)
N           -2.30215951140471        3.09200849015443        2.41075508585516
C           -2.11923007356785        2.27686649510130        1.48279256707741
C           -3.11411626246143        2.00137156224020        0.38769237721719
C           -3.54826655046744        0.54560346683946        0.44112628832106
C           -4.36692332714551        0.03088439324592       -0.56655137094576
C           -4.81059354670103       -1.28082676960793       -0.54147325767921
O           -5.62719353730784       -1.84494588382101       -1.45448529030733
C           -6.23051482101598       -1.03307257756219       -2.43512540644841
C           -4.39819121449541       -2.13958382596599        0.51416404857266
O           -4.85571851400496       -3.40504750220547        0.44382836355650
C           -4.54835839726448       -4.30505131526296        1.48265729357134
C           -3.58740510856960       -1.62272538672430        1.51216057041293
C           -3.17854986146882       -0.29504742933728        1.48033670479406
C           -2.36943288990230        2.28859393126030       -0.94498769947536
C           -1.38015607721165        1.19776429695473       -1.39595098789543
C           -0.15637079919232        1.12629724661934       -0.55756424260031
N            0.41408632600458        0.01670072647545       -0.10122781852869
C            1.53098087109929        0.01548700625075        0.61315563150562
C            3.70175099426527       -0.78855982663000       -2.64325253829115
C            4.76445863191162       -0.45724386908375       -1.83839119919284
C            5.38252437742346        0.82242565104870       -1.92098275972396
C            6.45538327321969        1.14983030750708       -1.13320861740140
C            6.97736250450716        0.23255951404282       -0.21599168889771
O            8.02001409161920        0.44434225044031        0.59425068824213
C            8.70615975747388        1.67458962426235        0.54901745221780
C            6.37509565687585       -1.06309086081553       -0.10575762347334
O            6.95791766931467       -1.86873011999135        0.80621648295727
C            6.48297707038103       -3.18507312930871        0.95952134343365
C            5.30052331519698       -1.38406320209259       -0.89476824048761
C           -0.21344864039591       -1.26590649455024       -0.37166676190101
C           -4.38819274383310        2.89247595600092        0.48364723413994
C           -5.17654957797469        2.59899029695825        1.75796524430013
C           -4.09185877894065        4.38644582728092        0.39163284934652
H           -4.67240155423200        0.67135491129170       -1.37724526559426
H           -6.78502697519333       -0.20565568744829       -1.98225309282643
H           -6.92334028136685       -1.68317824757347       -2.96620548558011
H           -5.49379754688805       -0.63840449951764       -3.14243893557702
H           -4.91679974584523       -3.94533539756321        2.44784613494779
H           -5.05655566671027       -5.23234304412627        1.22531488203769
H           -3.47101646238305       -4.48886681547504        1.54805331232704
H           -3.27816664279642       -2.24284961063723        2.33792603244415
H           -2.58052926579997        0.07751947210114        2.29722333760433
H           -3.11083552932085        2.41044615987186       -1.73446794019354
H           -1.83414577515990        3.23369856797632       -0.84710597433754
H           -1.89819692206364        0.24180570332727       -1.43870011925375
H           -1.08077125269025        1.45807192260167       -2.41955201710139
H           -1.18241930340761        1.71321728301442        1.34189687210113
H            0.38375440816515        2.04539451358770       -0.38794268335821
H            1.94415248382815       -0.90548885341355        0.96794812168333
H            2.03396627946101        0.93832150958823        0.82201838350519
H            3.31188116651147       -0.09159521365652       -3.36215777068172
H            3.24498765256755       -1.76081281210064       -2.59597246327020
H            4.99670178577947        1.53709846443601       -2.63062959796478
H            6.90544647254313        2.12500170324010       -1.22924063288841
H            8.05650735944708        2.50698280297873        0.83211494423584
H            9.12852055539923        1.86189999844780       -0.44070907910618
H            9.51184244421596        1.58372366789549        1.27308636956825
H            7.11756074577381       -3.63781871359609        1.71862373517439
H            5.44328681901994       -3.19873005477489        1.30126526853938
H            6.56881964141886       -3.75264267866544        0.02823194529234
H            4.84242079524027       -2.35790252597149       -0.83256884821363
H           -0.27472860362066       -1.43357202326477       -1.44660202355847
H           -1.21834094773549       -1.29407259835180        0.05361267898857
H            0.37734757313308       -2.06284174997925        0.07207478878617
H           -5.02016097739097        2.62428747794646       -0.37048984214208
H           -4.59706628164922        2.88915289020168        2.62853879419644
H           -5.42281006945469        1.54247136884019        1.83382326500695
H           -6.10281720076729        3.16731561591540        1.75427152593991
H           -3.44773242532591        4.69378581454144        1.20926340575450
H           -3.62348425310884        4.64984104367866       -0.55276452651636
H           -5.02459777442966        4.93923574454228        0.46661352527295
H           -1.55094343414342        3.23135456286311        3.07902909509147

          :  Hamiltonian                  GFN2-xTB          :
         :: total energy             -99.326949825949 Eh    ::
         :: gradient norm              0.002935215579 Eh/a0 ::
         :: HOMO-LUMO gap              0.732378387387 eV    ::
         :: SCC energy              -100.731547799339 Eh    ::
         :: -> dispersion             -0.072314542045 Eh    ::
         :: repulsion energy           1.402732025925 Eh    ::

    * Orbital Energies and Occupations

         #    Occupation            Energy/Eh            Energy/eV
      -------------------------------------------------------------
         1        2.0000           -0.8159026             -22.2018
       ...           ...                  ...                  ...
        78        1.9977           -0.5272578             -14.3474
        79        1.9976           -0.5266087             -14.3298
        80        1.9968           -0.5219251             -14.2023
        81        1.9963           -0.5196521             -14.1405
        82        1.9945           -0.5132155             -13.9653
        83        1.9937           -0.5110957             -13.9076
        84        1.9923           -0.5078665             -13.8198
        85        1.9885           -0.5016219             -13.6498
        86        1.9768           -0.4903975             -13.3444
        87        1.9289           -0.4722488             -12.8505
        88        1.9176           -0.4698143             -12.7843
        89        1.8515           -0.4599322             -12.5154
        90        1.5608           -0.4400558             -11.9745 (HOMO)
        91        0.7874           -0.4131414             -11.2421 (LUMO)
        92        0.0138           -0.3412615              -9.2862
        93        0.0088           -0.3341856              -9.0937
        94        0.0030           -0.3169398              -8.6244
        95        0.0025           -0.3138393              -8.5400
        96        0.0020           -0.3104319              -8.4473
        97        0.0004           -0.2863571              -7.7922
        98        0.0000           -0.1915161              -5.2114
        99        0.0000           -0.1792640              -4.8780
       100                         -0.1024951              -2.7890
       101                         -0.0660708              -1.7979
       ...                                ...                  ...
       171                          0.5903835              16.0652
      -------------------------------------------------------------
                  HL-Gap            0.0269144 Eh            0.7324 eV

     #   Z          covCN         q      C6AA      α(0)
     1   7 N        1.774    -0.264    27.689     7.792
     2   6 C        2.827     0.101    25.750     8.315
     3   6 C        3.907     0.007    20.404     6.421
     4   6 C        2.973     0.005    27.906     8.665
     5   6 C        2.920    -0.078    29.955     8.975
     6   6 C        2.862     0.130    25.154     8.221
     7   8 O        1.706    -0.229    17.795     5.696
     8   6 C        3.644     0.027    20.458     6.501
     9   6 C        2.864     0.129    25.181     8.225
    10   8 O        1.706    -0.227    17.764     5.691
    11   6 C        3.645     0.026    20.464     6.501
    12   6 C        2.913    -0.075    29.863     8.961
    13   6 C        2.921    -0.052    29.300     8.877
    14   6 C        3.811    -0.064    21.721     6.634
    15   6 C        3.801    -0.067    21.775     6.644
    16   6 C        2.870    -0.041    29.016     8.830
    17   7 N        2.729     0.101    19.497     6.558
    18   6 C        2.822    -0.107    30.686     9.077
    19   6 C        2.852    -0.094    30.357     9.030
    20   6 C        2.959     0.023    27.497     8.601
    21   6 C        2.921    -0.038    28.937     8.821
    22   6 C        2.906    -0.063    29.559     8.915
    23   6 C        2.864     0.140    24.937     8.185
    24   8 O        1.706    -0.204    17.393     5.631
    25   6 C        3.645     0.022    20.543     6.514
    26   6 C        2.857     0.135    25.048     8.203
    27   8 O        1.706    -0.231    17.825     5.700
    28   6 C        3.645     0.027    20.452     6.500
    29   6 C        2.918    -0.079    29.969     8.977
    30   6 C        3.720    -0.078    22.103     6.715
    31   6 C        3.853    -0.008    20.680     6.468
    32   6 C        3.756    -0.118    22.806     6.809
    33   6 C        3.755    -0.119    22.844     6.815
    34   1 H        0.926     0.054     2.271     2.357
    35   1 H        0.924     0.055     2.264     2.353
    36   1 H        0.925     0.082     1.962     2.191
    37   1 H        0.924     0.049     2.327     2.385
    38   1 H        0.924     0.056     2.248     2.344
    39   1 H        0.925     0.082     1.962     2.190
    40   1 H        0.924     0.049     2.336     2.390
    41   1 H        0.926     0.053     2.286     2.364
    42   1 H        0.926     0.041     2.436     2.441
    43   1 H        0.925     0.057     2.235     2.338
    44   1 H        0.924     0.053     2.284     2.364
    45   1 H        0.925     0.057     2.238     2.339
    46   1 H        0.924     0.066     2.131     2.283
    47   1 H        0.923     0.016     2.793     2.614
    48   1 H        0.926     0.057     2.234     2.337
    49   1 H        0.927     0.060     2.199     2.319
    50   1 H        0.926     0.058     2.217     2.328
    51   1 H        0.926     0.052     2.298     2.371
    52   1 H        0.926     0.049     2.338     2.391
    53   1 H        0.926     0.058     2.228     2.334
    54   1 H        0.926     0.060     2.203     2.321
    55   1 H        0.924     0.059     2.211     2.325
    56   1 H        0.924     0.062     2.176     2.307
    57   1 H        0.925     0.086     1.917     2.165
    58   1 H        0.925     0.081     1.964     2.192
    59   1 H        0.924     0.047     2.355     2.400
    60   1 H        0.924     0.055     2.263     2.353
    61   1 H        0.926     0.054     2.272     2.357
    62   1 H        0.925     0.082     1.955     2.186
    63   1 H        0.924     0.083     1.944     2.180
    64   1 H        0.925     0.084     1.940     2.178
    65   1 H        0.924     0.038     2.478     2.462
    66   1 H        0.925     0.068     2.105     2.269
    67   1 H        0.925     0.034     2.525     2.485
    68   1 H        0.925     0.051     2.306     2.375
    69   1 H        0.925     0.065     2.147     2.291
    70   1 H        0.925     0.037     2.495     2.470
    71   1 H        0.925     0.054     2.270     2.356
    72   1 H        0.860     0.159     1.341     1.814

Wiberg/Mayer (AO) data.
largest (>0.10) Wiberg bond orders for each atom

     #   Z sym  total        # sym  WBO       # sym  WBO       # sym  WBO
 ---------------------------------------------------------------------------
     1   7 N    3.021 --     2 C    1.957    72 H    0.940
     2   6 C    3.932 --     1 N    1.957     3 C    0.993    47 H    0.910
     3   6 C    3.970 --     2 C    0.993     4 C    0.973    14 C    0.952
                            31 C    0.944
     4   6 C    3.945 --    13 C    1.411     5 C    1.369     3 C    0.973
     5   6 C    3.959 --     6 C    1.400     4 C    1.369    34 H    0.957
     6   6 C    3.901 --     5 C    1.400     9 C    1.219     7 O    1.101
     7   8 O    2.251 --     6 C    1.101     8 C    0.977
     8   6 C    3.930 --     7 O    0.977    36 H    0.976    35 H    0.974
                            37 H    0.973
     9   6 C    3.896 --    12 C    1.390     6 C    1.219    10 O    1.103
    10   8 O    2.251 --     9 C    1.103    11 C    0.977
    11   6 C    3.930 --    10 O    0.977    39 H    0.977    40 H    0.973
                            38 H    0.973
    12   6 C    3.960 --    13 C    1.404     9 C    1.390    41 H    0.964
    13   6 C    3.949 --     4 C    1.411    12 C    1.404    42 H    0.962
    14   6 C    3.974 --    15 C    0.985    44 H    0.972    43 H    0.969
                             3 C    0.952
    15   6 C    3.986 --    16 C    1.051    14 C    0.985    45 H    0.963
                            46 H    0.939
    16   6 C    3.671 --    17 N    1.349    15 C    1.051    48 H    0.960
                            18 C    0.215
    17   7 N    3.745 --    18 C    1.367    16 C    1.349    30 C    0.984
    18   6 C    3.596 --    17 N    1.367    49 H    0.975    50 H    0.974
                            16 C    0.215
    19   6 C    3.541 --    20 C    1.499    52 H    0.979    51 H    0.979
    20   6 C    3.979 --    19 C    1.499    21 C    1.207    29 C    1.199
    21   6 C    3.807 --    22 C    1.521    20 C    1.207    53 H    0.967
    22   6 C    3.969 --    21 C    1.521    23 C    1.317    54 H    0.961
    23   6 C    3.768 --    22 C    1.317    26 C    1.172    24 O    1.142
    24   8 O    2.257 --    23 C    1.142    25 C    0.972
    25   6 C    3.924 --    57 H    0.976    24 O    0.972    55 H    0.971
                            56 H    0.971
    26   6 C    3.914 --    29 C    1.483    23 C    1.172    27 O    1.097
    27   8 O    2.254 --    26 C    1.097    28 C    0.978
    28   6 C    3.932 --    27 O    0.978    58 H    0.977    59 H    0.974
                            60 H    0.973
    29   6 C    3.853 --    26 C    1.483    20 C    1.199    61 H    0.962
    30   6 C    3.955 --    17 N    0.984    64 H    0.977    62 H    0.970
                            63 H    0.962
    31   6 C    3.970 --    33 C    1.009    32 C    1.008    65 H    0.957
                             3 C    0.944
    32   6 C    3.976 --    31 C    1.008    67 H    0.981    68 H    0.981
                            66 H    0.973
    33   6 C    3.978 --    31 C    1.009    70 H    0.982    71 H    0.979
                            69 H    0.973
    34   1 H    0.996 --     5 C    0.957
    35   1 H    0.993 --     8 C    0.974
    36   1 H    0.992 --     8 C    0.976
    37   1 H    0.993 --     8 C    0.973
    38   1 H    0.992 --    11 C    0.973
    39   1 H    0.993 --    11 C    0.977
    40   1 H    0.993 --    11 C    0.973
    41   1 H    0.995 --    12 C    0.964
    42   1 H    0.998 --    13 C    0.962
    43   1 H    0.995 --    14 C    0.969
    44   1 H    0.996 --    14 C    0.972
    45   1 H    0.996 --    15 C    0.963
    46   1 H    0.975 --    15 C    0.939
    47   1 H    0.978 --     2 C    0.910
    48   1 H    0.996 --    16 C    0.960
    49   1 H    0.996 --    18 C    0.975
    50   1 H    0.997 --    18 C    0.974
    51   1 H    0.996 --    19 C    0.979
    52   1 H    0.997 --    19 C    0.979
    53   1 H    0.996 --    21 C    0.967
    54   1 H    0.994 --    22 C    0.961
    55   1 H    0.989 --    25 C    0.971
    56   1 H    0.989 --    25 C    0.971
    57   1 H    0.992 --    25 C    0.976
    58   1 H    0.993 --    28 C    0.977
    59   1 H    0.994 --    28 C    0.974
    60   1 H    0.993 --    28 C    0.973
    61   1 H    0.996 --    29 C    0.962
    62   1 H    0.993 --    30 C    0.970
    63   1 H    0.993 --    30 C    0.962
    64   1 H    0.993 --    30 C    0.977
    65   1 H    0.990 --    31 C    0.957
    66   1 H    0.990 --    32 C    0.973
    67   1 H    0.996 --    32 C    0.981
    68   1 H    0.993 --    32 C    0.981
    69   1 H    0.991 --    33 C    0.973
    70   1 H    0.996 --    33 C    0.982
    71   1 H    0.993 --    33 C    0.979
    72   1 H    0.967 --     1 N    0.940
 ---------------------------------------------------------------------------

molecular dipole:
                 x           y           z       tot (Debye)
 q only:        1.110      -0.099      -0.435
   full:        1.502      -0.202      -0.542       4.091

           -------------------------------------------------
          | TOTAL ENERGY              -99.326949825949 Eh   |
          | GRADIENT NORM               0.002935215579 Eh/α |
          | HOMO-LUMO GAP               0.732378387387 eV   |
           -------------------------------------------------

 * finished run on 2024/04/06 at 11:13:37.675
