   * xtb version 6.6.1 (8d0f1dd) compiled by 'conda@1efc2f54142f' on 2023-08-01
          program call               : xtb struc.xyz --opt loose --input .xc1 --gfn2

   ID    Z sym.   atoms
    1    6 C      1, 3, 5-7, 10, 11, 14
    2    7 N      2, 4, 9, 13
    3    8 O      8, 12
    4    1 H      15-25
constraining bond 8 11 to    5.7600000 Å, actual value:    3.5880572 Å

          :  Hamiltonian                  GFN2-xTB          :
 * total energy  :   -25.4019510 Eh     change       -0.6650680E-10 Eh
 * total energy  :   -33.3163867 Eh     change       -0.7914436E+01 Eh
 * total energy  :   -38.3175382 Eh     change       -0.5001151E+01 Eh
 * total energy  :   -40.9946220 Eh     change       -0.2677084E+01 Eh
 * total energy  :   -41.7580058 Eh     change       -0.7633838E+00 Eh
 * total energy  :   -41.8055579 Eh     change       -0.4755205E-01 Eh
 * total energy  :   -41.8156671 Eh     change       -0.1010927E-01 Eh
 * total energy  :   -41.8383985 Eh     change       -0.2273137E-01 Eh
 * total energy  :   -41.8239704 Eh     change        0.1442808E-01 Eh
 * total energy  :   -41.8521370 Eh     change       -0.2816661E-01 Eh
 * total energy  :   -42.1170114 Eh     change       -0.2951495E-03 Eh
 * total energy  :   -42.1173259 Eh     change       -0.3145623E-03 Eh
 * total energy  :   -42.1175625 Eh     change       -0.2366147E-03 Eh
 * total energy  :   -42.1177101 Eh     change       -0.1475567E-03 Eh
 * total energy  :   -42.1178736 Eh     change       -0.1635283E-03 Eh
 * total energy  :   -42.1180319 Eh     change       -0.1582703E-03 Eh
 * total energy  :   -42.1181330 Eh     change       -0.1010978E-03 Eh
 * total energy  :   -42.1182298 Eh     change       -0.9683799E-04 Eh
 * total energy  :   -42.1182786 Eh     change       -0.4882140E-04 Eh
   *** GEOMETRY OPTIMIZATION CONVERGED AFTER 82 ITERATIONS ***

 final structure:
================
25
 xtb: 6.6.1 (8d0f1dd)
C            3.08297115234266        0.96635018466003        0.12617500964233
N            2.08263377058978       -0.05294053632038        0.33218457138439
C            2.35711868355191       -1.23428716760781        0.86928439224332
N            1.23906767739617       -1.96476499317684        0.91371853006080
C            0.20691431945836       -1.22001784932398        0.39149596479307
C            0.74010789212782        0.01076557078617        0.02553096005907
C            0.11444568803320        1.28217301005770       -0.50529264842873
O            0.82881055979803        2.18953451672587       -0.94230739210798
N           -1.19711732083528        1.28703853999677       -0.40459203614431
C           -1.95436762286870        2.43583407833856       -0.74590334330322
C           -1.47105278615662       -2.61811153493786        1.24013880458326
O           -1.32408812295990       -3.27987929355435        2.19417656634616
N           -1.08343971099944       -1.79146084575164        0.33009424632350
C           -1.95550845146500       -1.46686007287947       -0.79925698401717
H            3.61144492815854        1.16111540762345        1.05823002064525
H            3.79729309654465        0.63563766120398       -0.62815343690613
H            2.59751919014026        1.87664100773053       -0.22999945827869
H            3.32230511477027       -1.55278645112980        1.21252138910231
H           -1.33057682791806        3.23701859624723       -1.15433842682107
H           -2.72217937859375        2.16037133501867       -1.47283721067413
H           -2.46358597336620        2.79978115359547        0.15175987991476
H           -1.55674451365042       -1.91496270769575       -1.71174753128338
H           -1.97519575969828       -0.37220289354805       -0.89985297431897
H           -2.95218018571581       -1.85346888838535       -0.60590803116913
H            1.16583609541099       -2.90227928607260        1.28605075625483

          :  Hamiltonian                  GFN2-xTB          :
         :: total energy             -42.118278647512 Eh    ::
         :: gradient norm              0.003421933871 Eh/a0 ::
         :: HOMO-LUMO gap              1.158274118576 eV    ::
         :: SCC energy               -42.646424351026 Eh    ::
         :: -> dispersion             -0.021698384724 Eh    ::
         :: repulsion energy           0.527967524427 Eh    ::

    * Orbital Energies and Occupations

         #    Occupation            Energy/Eh            Energy/eV
      -------------------------------------------------------------
         1        2.0000           -0.9267393             -25.2179
       ...           ...                  ...                  ...
        25        2.0000           -0.6670208             -18.1506
        26        2.0000           -0.6654901             -18.1089
        27        1.9999           -0.6385926             -17.3770
        28        1.9999           -0.6368318             -17.3291
        29        1.9997           -0.6244291             -16.9916
        30        1.9996           -0.6171293             -16.7929
        31        1.9995           -0.6146424             -16.7253
        32        1.9991           -0.6051288             -16.4664
        33        1.9984           -0.5948587             -16.1869
        34        1.9951           -0.5773750             -15.7112
        35        1.9366           -0.5363647             -14.5952
        36        1.7320           -0.5117801             -13.9262
        37        1.6957           -0.5094306             -13.8623 (HOMO)
        38        0.5496           -0.4668648             -12.7040 (LUMO)
        39        0.0588           -0.4268616             -11.6155
        40        0.0342           -0.4180581             -11.3759
        41        0.0019           -0.3721204             -10.1259
        42        0.0000           -0.2950858              -8.0297
        43        0.0000           -0.2179149              -5.9298
        44                         -0.1920538              -5.2260
        45                         -0.1392452              -3.7891
        46                         -0.0770800              -2.0975
        47                         -0.0581481              -1.5823
        48                         -0.0463396              -1.2610
       ...                                ...                  ...
        67                          0.7614596              20.7204
      -------------------------------------------------------------
                  HL-Gap            0.0425658 Eh            1.1583 eV

     #   Z          covCN         q      C6AA      α(0)
     1   6 C        3.694    -0.100    22.605     6.802
     2   7 N        2.857     0.086    19.752     6.601
     3   6 C        3.028     0.056    26.718     8.479
     4   7 N        2.802    -0.057    22.337     7.019
     5   6 C        3.045     0.089    25.973     8.359
     6   6 C        3.073     0.011    27.694     8.628
     7   6 C        2.764     0.280    22.261     7.727
     8   8 O        0.858    -0.415    21.983     6.286
     9   7 N        1.832    -0.266    27.747     7.806
    10   6 C        3.702    -0.027    21.211     6.585
    11   6 C        1.818     0.259    25.205     8.112
    12   8 O        0.856    -0.168    17.551     5.617
    13   7 N        2.728     0.024    20.825     6.778
    14   6 C        3.703    -0.098    22.528     6.786
    15   1 H        0.925     0.101     1.774     2.083
    16   1 H        0.924     0.107     1.721     2.051
    17   1 H        0.924     0.156     1.349     1.816
    18   1 H        0.926     0.128     1.549     1.946
    19   1 H        0.924     0.089     1.887     2.148
    20   1 H        0.924     0.082     1.961     2.190
    21   1 H        0.924     0.089     1.891     2.150
    22   1 H        0.924     0.098     1.800     2.098
    23   1 H        0.923     0.138     1.475     1.900
    24   1 H        0.925     0.107     1.723     2.053
    25   1 H        0.860     0.229     0.971     1.544

Wiberg/Mayer (AO) data.
largest (>0.10) Wiberg bond orders for each atom

     #   Z sym  total        # sym  WBO       # sym  WBO       # sym  WBO
 ---------------------------------------------------------------------------
     1   6 C    3.892 --     2 N    0.979    15 H    0.963    16 H    0.956
                            17 H    0.936
     2   7 N    3.701 --     3 C    1.384     6 C    1.191     1 C    0.979
     3   6 C    3.885 --     2 N    1.384     4 N    1.317    18 H    0.951
     4   7 N    3.595 --     3 C    1.317     5 C    1.179    25 H    0.918
     5   6 C    3.853 --     6 C    1.444     4 N    1.179    13 N    1.010
     6   6 C    3.881 --     5 C    1.444     2 N    1.191     7 C    0.959
     7   6 C    3.928 --     8 O    1.528     9 N    1.375     6 C    0.959
     8   8 O    1.803 --     7 C    1.528     9 N    0.151
     9   7 N    2.720 --     7 C    1.375    10 C    1.065     8 O    0.151
    10   6 C    3.901 --     9 N    1.065    20 H    0.938    19 H    0.936
                            21 H    0.929
    11   6 C    3.450 --    12 O    1.963    13 N    1.400
    12   8 O    2.199 --    11 C    1.963    13 N    0.171
    13   7 N    3.584 --    11 C    1.400     5 C    1.010    14 C    0.936
                            12 O    0.171
    14   6 C    3.863 --    24 H    0.974    22 H    0.968    13 N    0.936
                            23 H    0.918
    15   1 H    0.987 --     1 C    0.963
    16   1 H    0.986 --     1 C    0.956
    17   1 H    0.974 --     1 C    0.936
    18   1 H    0.983 --     3 C    0.951
    19   1 H    0.942 --    10 C    0.936
    20   1 H    0.958 --    10 C    0.938
    21   1 H    0.949 --    10 C    0.929
    22   1 H    0.989 --    14 C    0.968
    23   1 H    0.980 --    14 C    0.918
    24   1 H    0.987 --    14 C    0.974
    25   1 H    0.947 --     4 N    0.918
 ---------------------------------------------------------------------------

molecular dipole:
                 x           y           z       tot (Debye)
 q only:        1.118      -2.381       0.661
   full:        1.241      -2.663       0.799       7.739

           -------------------------------------------------
          | TOTAL ENERGY              -42.118278647512 Eh   |
          | GRADIENT NORM               0.003421933871 Eh/α |
          | HOMO-LUMO GAP               1.158274118576 eV   |
           -------------------------------------------------

 * finished run on 2024/06/05 at 19:59:17.919
