   * xtb version 6.6.1 (8d0f1dd) compiled by 'conda@1efc2f54142f' on 2023-08-01
          program call               : xtb xtbopt.xyz --opt crude --input .xc2 --gfn2

   ID    Z sym.   atoms
    1    6 C      1, 3, 5-7, 10, 11, 14
    2    7 N      2, 4, 9, 13
    3    8 O      8, 12
    4    1 H      15-25
########################################################################
[WARNING] Please study the warnings concerning your input carefully
-1- readin_getIntValue: could not parse ''
########################################################################

          :  Hamiltonian                  GFN2-xTB          :
 * total energy  :   -42.1182823 Eh     change        0.1207923E-12 Eh
 * total energy  :   -42.1184283 Eh     change       -0.1459547E-03 Eh
   *** GEOMETRY OPTIMIZATION CONVERGED AFTER 2 ITERATIONS ***

 final structure:
================
25
 xtb: 6.6.1 (8d0f1dd)
C            3.08481936955404        0.96519397261215        0.12621759458423
N            2.08510897880247       -0.05448076389776        0.33209361580308
C            2.35885587248988       -1.23565904693388        0.86996659428116
N            1.24003385905915       -1.96512136474338        0.91426931414210
C            0.20989638539079       -1.21952042881291        0.38936535272496
C            0.74282517943819        0.00874175794742        0.02522039602934
C            0.11069421587583        1.27557420970957       -0.50211299902510
O            0.82442969656850        2.17907687181717       -0.94143423542649
N           -1.20016517211087        1.28174764862094       -0.39889278827777
C           -1.95769331940514        2.42972004994732       -0.74301904666979
C           -1.47423214894594       -2.59231541053331        1.24704629353646
O           -1.31926245508003       -3.27579015621364        2.18497485538333
N           -1.08198670552209       -1.78284420945045        0.32659706951338
C           -1.95342204613836       -1.46194310330372       -0.80359669248015
H            3.61195813250738        1.16139874279967        1.05861466430621
H            3.80020855994234        0.63418301210397       -0.62683904764311
H            2.59873001503658        1.87453170319507       -0.23163695585504
H            3.32356935627452       -1.55409079184926        1.21450629870572
H           -1.33413804972504        3.23094767343799       -1.15258270063204
H           -2.72444729333109        2.15302294365278       -1.47075097669718
H           -2.46791841192993        2.79517718214545        0.15313189201762
H           -1.55642342043895       -1.91183213484596       -1.71399239144967
H           -1.97541610069661       -0.36971640684651       -0.90429783458928
H           -2.95085649075206       -1.84568533042191       -0.60901238171664
H            1.16526350723163       -2.90207807853627        1.28733572733480

          :  Hamiltonian                  GFN2-xTB          :
         :: total energy             -42.118428281081 Eh    ::
         :: gradient norm              0.003008964205 Eh/a0 ::
         :: HOMO-LUMO gap              1.160796390411 eV    ::
         :: SCC energy               -42.649283219841 Eh    ::
         :: -> dispersion             -0.021731593842 Eh    ::
         :: repulsion energy           0.530680027536 Eh    ::

    * Orbital Energies and Occupations

         #    Occupation            Energy/Eh            Energy/eV
      -------------------------------------------------------------
         1        2.0000           -0.9268196             -25.2200
       ...           ...                  ...                  ...
        25        2.0000           -0.6674373             -18.1619
        26        2.0000           -0.6656396             -18.1130
        27        1.9999           -0.6386146             -17.3776
        28        1.9999           -0.6370546             -17.3351
        29        1.9997           -0.6243828             -16.9903
        30        1.9996           -0.6172708             -16.7968
        31        1.9995           -0.6146784             -16.7263
        32        1.9992           -0.6052791             -16.4705
        33        1.9984           -0.5948709             -16.1873
        34        1.9953           -0.5777752             -15.7221
        35        1.9369           -0.5363404             -14.5946
        36        1.7314           -0.5116348             -13.9223
        37        1.6968           -0.5093969             -13.8614 (HOMO)
        38        0.5490           -0.4667384             -12.7006 (LUMO)
        39        0.0587           -0.4267324             -11.6120
        40        0.0338           -0.4177907             -11.3687
        41        0.0019           -0.3722902             -10.1305
        42        0.0000           -0.2941395              -8.0039
        43        0.0000           -0.2170531              -5.9063
        44                         -0.1916373              -5.2147
        45                         -0.1382450              -3.7618
        46                         -0.0765021              -2.0817
        47                         -0.0571149              -1.5542
        48                         -0.0448294              -1.2199
       ...                                ...                  ...
        67                          0.7619860              20.7347
      -------------------------------------------------------------
                  HL-Gap            0.0426585 Eh            1.1608 eV

     #   Z          covCN         q      C6AA      α(0)
     1   6 C        3.694    -0.100    22.603     6.802
     2   7 N        2.859     0.086    19.752     6.601
     3   6 C        3.029     0.056    26.714     8.478
     4   7 N        2.804    -0.057    22.343     7.020
     5   6 C        3.050     0.089    25.972     8.358
     6   6 C        3.075     0.011    27.692     8.628
     7   6 C        2.764     0.281    22.252     7.725
     8   8 O        0.858    -0.415    21.984     6.286
     9   7 N        1.831    -0.267    27.775     7.810
    10   6 C        3.702    -0.027    21.209     6.585
    11   6 C        1.822     0.259    25.195     8.110
    12   8 O        0.856    -0.169    17.565     5.619
    13   7 N        2.729     0.025    20.805     6.774
    14   6 C        3.704    -0.098    22.535     6.787
    15   1 H        0.925     0.101     1.774     2.083
    16   1 H        0.925     0.107     1.720     2.051
    17   1 H        0.924     0.156     1.350     1.817
    18   1 H        0.926     0.128     1.548     1.945
    19   1 H        0.924     0.089     1.890     2.150
    20   1 H        0.924     0.081     1.964     2.192
    21   1 H        0.924     0.089     1.893     2.152
    22   1 H        0.924     0.099     1.792     2.093
    23   1 H        0.924     0.138     1.474     1.899
    24   1 H        0.925     0.107     1.722     2.052
    25   1 H        0.860     0.229     0.970     1.543

Wiberg/Mayer (AO) data.
largest (>0.10) Wiberg bond orders for each atom

     #   Z sym  total        # sym  WBO       # sym  WBO       # sym  WBO
 ---------------------------------------------------------------------------
     1   6 C    3.893 --     2 N    0.979    15 H    0.963    16 H    0.956
                            17 H    0.937
     2   7 N    3.701 --     3 C    1.384     6 C    1.191     1 C    0.979
     3   6 C    3.884 --     2 N    1.384     4 N    1.317    18 H    0.951
     4   7 N    3.594 --     3 C    1.317     5 C    1.177    25 H    0.918
     5   6 C    3.854 --     6 C    1.444     4 N    1.177    13 N    1.010
     6   6 C    3.881 --     5 C    1.444     2 N    1.191     7 C    0.960
     7   6 C    3.928 --     8 O    1.529     9 N    1.374     6 C    0.960
     8   8 O    1.804 --     7 C    1.529     9 N    0.151
     9   7 N    2.718 --     7 C    1.374    10 C    1.064     8 O    0.151
    10   6 C    3.901 --     9 N    1.064    20 H    0.938    19 H    0.936
                            21 H    0.929
    11   6 C    3.452 --    12 O    1.963    13 N    1.401
    12   8 O    2.199 --    11 C    1.963    13 N    0.171
    13   7 N    3.585 --    11 C    1.401     5 C    1.010    14 C    0.936
                            12 O    0.171
    14   6 C    3.863 --    24 H    0.974    22 H    0.968    13 N    0.936
                            23 H    0.918
    15   1 H    0.987 --     1 C    0.963
    16   1 H    0.986 --     1 C    0.956
    17   1 H    0.974 --     1 C    0.937
    18   1 H    0.983 --     3 C    0.951
    19   1 H    0.943 --    10 C    0.936
    20   1 H    0.958 --    10 C    0.938
    21   1 H    0.950 --    10 C    0.929
    22   1 H    0.989 --    14 C    0.968
    23   1 H    0.979 --    14 C    0.918
    24   1 H    0.987 --    14 C    0.974
    25   1 H    0.947 --     4 N    0.918
 ---------------------------------------------------------------------------

molecular dipole:
                 x           y           z       tot (Debye)
 q only:        1.121      -2.372       0.663
   full:        1.240      -2.646       0.805       7.704

           -------------------------------------------------
          | TOTAL ENERGY              -42.118428281081 Eh   |
          | GRADIENT NORM               0.003008964205 Eh/α |
          | HOMO-LUMO GAP               1.160796390411 eV   |
           -------------------------------------------------

 * finished run on 2024/06/05 at 19:59:18.088
