   * xtb version 6.6.1 (8d0f1dd) compiled by 'conda@1efc2f54142f' on 2023-08-01
          program call               : xtb struc.xyz --opt loose --input .xc1 --gfn2

   ID    Z sym.   atoms
    1    7 N      1, 17
    2    6 C      2-6, 8, 9, 11-16, 18-23, 25, 26, 28-33
    3    8 O      7, 10, 24, 27
    4    1 H      34-72
constraining bond 9 34 to    3.7133300 Å, actual value:    3.3952757 Å

          :  Hamiltonian                  GFN2-xTB          :
 * total energy  :   -99.4221931 Eh     change       -0.4035485E-08 Eh
 * total energy  :   -99.4536590 Eh     change       -0.3146594E-01 Eh
 * total energy  :   -99.4818661 Eh     change       -0.2820709E-01 Eh
 * total energy  :   -99.5097365 Eh     change       -0.2787039E-01 Eh
 * total energy  :   -99.5446131 Eh     change       -0.3487655E-01 Eh
 * total energy  :   -99.5548030 Eh     change       -0.1018990E-01 Eh
 * total energy  :   -99.6471962 Eh     change       -0.9239320E-01 Eh
 * total energy  :   -99.8497968 Eh     change       -0.2026006E+00 Eh
 * total energy  :  -100.1481685 Eh     change       -0.2983717E+00 Eh
 * total energy  :   -99.8986811 Eh     change        0.2494873E+00 Eh
 * total energy  :  -100.8009475 Eh     change       -0.8767535E-04 Eh
 * total energy  :  -100.8010456 Eh     change       -0.9809982E-04 Eh
 * total energy  :  -100.8011331 Eh     change       -0.8753334E-04 Eh
 * total energy  :  -100.8012134 Eh     change       -0.8030669E-04 Eh
 * total energy  :  -100.8012946 Eh     change       -0.8123331E-04 Eh
 * total energy  :  -100.8013736 Eh     change       -0.7896200E-04 Eh
 * total energy  :  -100.8014409 Eh     change       -0.6734078E-04 Eh
 * total energy  :  -100.8014965 Eh     change       -0.5553253E-04 Eh
 * total energy  :  -100.8015404 Eh     change       -0.4393242E-04 Eh
   *** GEOMETRY OPTIMIZATION CONVERGED AFTER 175 ITERATIONS ***

 final structure:
================
72
 xtb: 6.6.1 (8d0f1dd)
N           -1.92554688310263        3.10936301789212        1.39922006021937
C           -1.80305072433429        2.06237360673071        0.73168981130782
C           -2.88347433864395        1.44563968135656       -0.11629516062677
C           -3.37366754316860        0.21560581844281        0.61367361720518
C           -4.46130776474021       -0.69083070964240        0.28569255997679
C           -5.29252835099381       -0.72481786935408       -0.82075183675225
O           -6.46620637300695       -1.34558255577964       -0.93290953849232
C           -7.22596571954560       -1.78392258768242        0.17875196724065
C           -4.55249208093276       -1.66430058687874        1.36330730139586
O           -4.94154039111359       -0.10808802547768       -1.95010671335404
C           -5.87065513726796       -0.06771454337634       -3.02517489499270
C           -3.56652561818481       -1.34658766276429        2.26797058433194
C           -2.87045722328726       -0.19725258767374        1.82819689377608
C           -2.19853736344791        1.05030529003125       -1.45071977375892
C           -1.25560613748288       -0.15572049871698       -1.32129394425209
C            0.03388380668724        0.17295155234152       -0.67327869268838
N            0.69396989212455       -0.61092373179961        0.17103851464688
C            2.07132778637390       -0.30944338440141        0.48827899982714
C            3.03360442482984       -0.91935434113375       -0.54969551738357
C            4.44484282878875       -0.47132623255115       -0.29123086604667
C            4.82048700811389        0.83578588204927       -0.56045414482914
C            6.11237530966336        1.27060297377278       -0.31125912748405
C            7.06084700763311        0.40066502820465        0.20660120626381
O            8.34176110348823        0.70916263576279        0.48414092942919
C            8.80470480073934        2.01404573964880        0.22479397536516
C            6.68892212376474       -0.94531981895007        0.47566095168066
O            7.67698671741564       -1.72505460924010        0.95769063998245
C            7.42079700136050       -3.08593901907744        1.20965719316258
C            5.38634725396685       -1.35308909527867        0.23195429512665
C            0.12402147115339       -1.83392527988313        0.68026429634183
C           -4.06130491135880        2.42815019330624       -0.38015963196353
C           -4.83621878534703        2.73190494224537        0.90035225706216
C           -3.61497852777998        3.73251663457176       -1.03656889289941
H           -5.04231436033041       -2.27378636797833        1.39329892001615
H           -6.99546954341626       -2.82366895276074        0.41565286692098
H           -8.26794825481861       -1.71536099935103       -0.13483157286192
H           -7.05846541559888       -1.15201751700153        1.05169073496927
H           -6.80624403371022        0.40235486494496       -2.71597639155572
H           -5.39296436642455        0.52683729392101       -3.80098726503535
H           -6.08032242763503       -1.07203479833321       -3.39731521862764
H           -3.35400248998635       -1.88651609861508        3.17257907582155
H           -2.09419461144044        0.28918128513458        2.39077431249275
H           -2.97145069937228        0.79983786664518       -2.17157691454328
H           -1.63823506801091        1.90600569665200       -1.83021379987894
H           -1.77282275211425       -0.96436413201129       -0.80714542307801
H           -1.03000985387474       -0.49960277098701       -2.33949862226672
H           -0.85922959235217        1.48104796822221        0.66432417443897
H            0.57435506934279        1.03000029098173       -1.04961455759994
H            2.30835532297610       -0.69556204314475        1.48125429914719
H            2.20888956763994        0.77447012878131        0.50362216427359
H            2.72050324528936       -0.59051424973372       -1.54410302082093
H            2.96833670654244       -2.00745035049456       -0.51291334429591
H            4.10735665349796        1.52858481258063       -0.98158280182670
H            6.37329463466960        2.29281187519726       -0.53150328423234
H            8.26529558787946        2.75661012141635        0.82061964487790
H            8.72000010918620        2.26517048009778       -0.83678223207056
H            9.85414146124965        2.01406511898064        0.51294827422320
H            8.36908732376255       -3.50518390508854        1.54055012860893
H            6.67415256077334       -3.21404278790666        1.99976759276408
H            7.09133850919697       -3.60646597036839        0.30531963499892
H            5.09378776481551       -2.37123771787472        0.43523521266510
H            0.03380538222775       -2.58635473503101       -0.10652432348193
H           -0.86835245087997       -1.64424607460202        1.09796484598124
H            0.76069981463186       -2.22809042914707        1.46792174392440
H           -4.73544930541516        1.92458465295076       -1.07571222234627
H           -4.20204027392818        3.26429274972214        1.60222374375665
H           -5.18733965783305        1.81785601779317        1.37388937357802
H           -5.69765168550348        3.35391578758201        0.66836633598365
H           -2.92458736645186        4.26777061305423       -0.39212129076960
H           -3.14515399440521        3.55782935355909       -2.00107325356468
H           -4.48434929048966        4.36532941950878       -1.20035629582621
H           -1.12310128501926        3.44220316855582        1.92405627901962

          :  Hamiltonian                  GFN2-xTB          :
         :: total energy            -100.801540404741 Eh    ::
         :: gradient norm              0.002510969211 Eh/a0 ::
         :: HOMO-LUMO gap              1.707736332497 eV    ::
         :: SCC energy              -100.777853808896 Eh    ::
         :: -> dispersion             -0.077072174074 Eh    ::
         :: repulsion energy           1.508650786755 Eh    ::

    * Orbital Energies and Occupations

         #    Occupation            Energy/Eh            Energy/eV
      -------------------------------------------------------------
         1        2.0000           -0.8510845             -23.1592
       ...           ...                  ...                  ...
        78        1.9987           -0.5268865             -14.3373
        79        1.9985           -0.5242808             -14.2664
        80        1.9984           -0.5234666             -14.2443
        81        1.9983           -0.5223340             -14.2134
        82        1.9973           -0.5156423             -14.0313
        83        1.9964           -0.5109597             -13.9039
        84        1.9948           -0.5051237             -13.7451
        85        1.9948           -0.5049870             -13.7414
        86        1.9804           -0.4839092             -13.1678
        87        1.9491           -0.4685482             -12.7498
        88        1.9293           -0.4631794             -12.6038
        89        1.8523           -0.4508759             -12.2690
        90        1.8479           -0.4503718             -12.2552 (HOMO)
        91        0.3750           -0.3876136             -10.5475 (LUMO)
        92        0.0789           -0.3602877              -9.8039
        93        0.0122           -0.3302253              -8.9859
        94        0.0029           -0.3071230              -8.3572
        95        0.0026           -0.3057403              -8.3196
        96        0.0000           -0.2343183              -6.3761
        97        0.0000           -0.2271893              -6.1821
        98        0.0000           -0.1825040              -4.9662
        99                         -0.1297987              -3.5320
       100                         -0.0993496              -2.7034
       101                         -0.0854362              -2.3248
       ...                                ...                  ...
       171                          1.2910224              35.1305
      -------------------------------------------------------------
                  HL-Gap            0.0627582 Eh            1.7077 eV

     #   Z          covCN         q      C6AA      α(0)
     1   7 N        1.773    -0.266    27.735     7.799
     2   6 C        2.832     0.105    25.680     8.304
     3   6 C        3.906     0.009    20.366     6.415
     4   6 C        3.053    -0.011    28.228     8.713
     5   6 C        3.088    -0.064    29.495     8.902
     6   6 C        2.731     0.287    22.138     7.703
     7   8 O        1.704    -0.236    17.912     5.714
     8   6 C        3.635     0.021    20.609     6.532
     9   6 C        2.996    -0.089    30.213     9.017
    10   8 O        1.705    -0.231    17.828     5.701
    11   6 C        3.646     0.023    20.525     6.511
    12   6 C        3.025    -0.053    29.282     8.876
    13   6 C        3.030    -0.060    29.451     8.902
    14   6 C        3.813    -0.072    21.874     6.657
    15   6 C        3.802    -0.068    21.802     6.648
    16   6 C        2.847     0.010    27.779     8.638
    17   7 N        2.729     0.010    21.090     6.821
    18   6 C        3.757    -0.017    20.935     6.524
    19   6 C        3.808    -0.069    21.824     6.650
    20   6 C        2.968    -0.000    28.037     8.685
    21   6 C        2.923    -0.050    29.244     8.868
    22   6 C        2.914    -0.068    29.694     8.936
    23   6 C        2.865     0.133    25.096     8.212
    24   8 O        1.706    -0.224    17.709     5.682
    25   6 C        3.646     0.026    20.474     6.503
    26   6 C        2.863     0.133    25.089     8.210
    27   8 O        1.706    -0.225    17.738     5.686
    28   6 C        3.645     0.027    20.454     6.500
    29   6 C        2.919    -0.078    29.961     8.976
    30   6 C        3.699    -0.071    22.039     6.714
    31   6 C        3.852    -0.012    20.752     6.479
    32   6 C        3.755    -0.116    22.785     6.806
    33   6 C        3.755    -0.116    22.783     6.806
    34   1 H        0.930     0.078     2.003     2.213
    35   1 H        0.924     0.071     2.075     2.252
    36   1 H        0.924     0.086     1.921     2.167
    37   1 H        0.924     0.070     2.082     2.256
    38   1 H        0.924     0.072     2.068     2.249
    39   1 H        0.925     0.082     1.959     2.189
    40   1 H        0.924     0.073     2.053     2.241
    41   1 H        0.926     0.030     2.579     2.512
    42   1 H        0.926     0.018     2.763     2.600
    43   1 H        0.925     0.074     2.047     2.237
    44   1 H        0.924     0.048     2.345     2.395
    45   1 H        0.925     0.070     2.083     2.257
    46   1 H        0.923     0.077     2.009     2.217
    47   1 H        0.922     0.012     2.864     2.647
    48   1 H        0.926     0.068     2.104     2.268
    49   1 H        0.924     0.069     2.100     2.266
    50   1 H        0.924     0.067     2.114     2.274
    51   1 H        0.924     0.053     2.280     2.361
    52   1 H        0.924     0.054     2.273     2.358
    53   1 H        0.926     0.040     2.445     2.445
    54   1 H        0.926     0.057     2.240     2.340
    55   1 H        0.924     0.053     2.280     2.361
    56   1 H        0.924     0.054     2.266     2.354
    57   1 H        0.925     0.081     1.965     2.192
    58   1 H        0.925     0.081     1.968     2.194
    59   1 H        0.924     0.050     2.318     2.381
    60   1 H        0.924     0.052     2.297     2.370
    61   1 H        0.926     0.049     2.329     2.386
    62   1 H        0.924     0.074     2.044     2.236
    63   1 H        0.924     0.087     1.911     2.162
    64   1 H        0.925     0.079     1.985     2.203
    65   1 H        0.924     0.042     2.418     2.432
    66   1 H        0.925     0.070     2.081     2.256
    67   1 H        0.925     0.034     2.536     2.490
    68   1 H        0.925     0.045     2.386     2.415
    69   1 H        0.925     0.057     2.237     2.339
    70   1 H        0.925     0.032     2.555     2.500
    71   1 H        0.925     0.050     2.320     2.382
    72   1 H        0.860     0.156     1.358     1.826

Wiberg/Mayer (AO) data.
largest (>0.10) Wiberg bond orders for each atom

     #   Z sym  total        # sym  WBO       # sym  WBO       # sym  WBO
 ---------------------------------------------------------------------------
     1   7 N    3.049 --     2 C    1.959    72 H    0.941
     2   6 C    3.923 --     1 N    1.959     3 C    0.991    47 H    0.887
     3   6 C    3.974 --     2 C    0.991     4 C    0.977    14 C    0.954
                            31 C    0.943
     4   6 C    3.865 --    13 C    1.520     5 C    1.152     3 C    0.977
     5   6 C    3.917 --     6 C    1.365     9 C    1.167     4 C    1.152
     6   6 C    3.827 --     5 C    1.365     7 O    1.140    10 O    1.131
     7   8 O    2.306 --     6 C    1.140     8 C    0.954
     8   6 C    3.912 --    36 H    0.974    37 H    0.974    35 H    0.972
                             7 O    0.954
     9   6 C    3.872 --    12 C    1.557     5 C    1.167    34 H    0.979
    10   8 O    2.308 --     6 C    1.131    11 C    0.950
    11   6 C    3.913 --    39 H    0.978    40 H    0.974    38 H    0.974
                            10 O    0.950
    12   6 C    3.911 --     9 C    1.557    13 C    1.261    41 H    0.973
    13   6 C    3.911 --     4 C    1.520    12 C    1.261    42 H    0.966
    14   6 C    3.970 --    15 C    0.985    44 H    0.972    43 H    0.964
                             3 C    0.954
    15   6 C    3.985 --    16 C    1.059    14 C    0.985    45 H    0.959
                            46 H    0.925
    16   6 C    3.613 --    17 N    1.401    15 C    1.059    48 H    0.957
    17   7 N    3.485 --    16 C    1.401    30 C    0.999    18 C    0.987
    18   6 C    3.955 --    17 N    0.987    19 C    0.968    49 H    0.967
                            50 H    0.965
    19   6 C    3.976 --    20 C    1.008    52 H    0.975    18 C    0.968
                            51 H    0.967
    20   6 C    3.947 --    21 C    1.406    29 C    1.384    19 C    1.008
    21   6 C    3.951 --    22 C    1.419    20 C    1.406    53 H    0.968
    22   6 C    3.962 --    21 C    1.419    23 C    1.383    54 H    0.963
    23   6 C    3.897 --    22 C    1.383    26 C    1.223    24 O    1.108
    24   8 O    2.254 --    23 C    1.108    25 C    0.977
    25   6 C    3.930 --    57 H    0.977    24 O    0.977    55 H    0.973
                            56 H    0.973
    26   6 C    3.900 --    29 C    1.392    23 C    1.223    27 O    1.103
    27   8 O    2.255 --    26 C    1.103    28 C    0.978
    28   6 C    3.932 --    27 O    0.978    58 H    0.977    60 H    0.973
                            59 H    0.973
    29   6 C    3.960 --    26 C    1.392    20 C    1.384    61 H    0.962
    30   6 C    3.955 --    17 N    0.999    64 H    0.977    62 H    0.966
                            63 H    0.959
    31   6 C    3.970 --    33 C    1.009    32 C    1.008    65 H    0.957
                             3 C    0.943
    32   6 C    3.978 --    31 C    1.008    68 H    0.982    67 H    0.982
                            66 H    0.973
    33   6 C    3.985 --    31 C    1.009    70 H    0.983    71 H    0.981
                            69 H    0.978
    34   1 H    0.993 --     9 C    0.979
    35   1 H    0.993 --     8 C    0.972
    36   1 H    0.991 --     8 C    0.974
    37   1 H    0.994 --     8 C    0.974
    38   1 H    0.992 --    11 C    0.974
    39   1 H    0.993 --    11 C    0.978
    40   1 H    0.992 --    11 C    0.974
    41   1 H    0.997 --    12 C    0.973
    42   1 H    0.999 --    13 C    0.966
    43   1 H    0.993 --    14 C    0.964
    44   1 H    0.997 --    14 C    0.972
    45   1 H    0.994 --    15 C    0.959
    46   1 H    0.970 --    15 C    0.925
    47   1 H    0.986 --     2 C    0.887
    48   1 H    0.995 --    16 C    0.957
    49   1 H    0.993 --    18 C    0.967
    50   1 H    0.993 --    18 C    0.965
    51   1 H    0.995 --    19 C    0.967
    52   1 H    0.997 --    19 C    0.975
    53   1 H    0.998 --    21 C    0.968
    54   1 H    0.995 --    22 C    0.963
    55   1 H    0.992 --    25 C    0.973
    56   1 H    0.992 --    25 C    0.973
    57   1 H    0.993 --    25 C    0.977
    58   1 H    0.993 --    28 C    0.977
    59   1 H    0.993 --    28 C    0.973
    60   1 H    0.993 --    28 C    0.973
    61   1 H    0.996 --    29 C    0.962
    62   1 H    0.985 --    30 C    0.966
    63   1 H    0.986 --    30 C    0.959
    64   1 H    0.993 --    30 C    0.977
    65   1 H    0.991 --    31 C    0.957
    66   1 H    0.990 --    32 C    0.973
    67   1 H    0.997 --    32 C    0.982
    68   1 H    0.995 --    32 C    0.982
    69   1 H    0.994 --    33 C    0.978
    70   1 H    0.997 --    33 C    0.983
    71   1 H    0.994 --    33 C    0.981
    72   1 H    0.970 --     1 N    0.941
 ---------------------------------------------------------------------------

molecular dipole:
                 x           y           z       tot (Debye)
 q only:       -0.641      -0.835      -0.901
   full:       -0.497      -1.074      -0.960       3.873

           -------------------------------------------------
          | TOTAL ENERGY             -100.801540404741 Eh   |
          | GRADIENT NORM               0.002510969211 Eh/α |
          | HOMO-LUMO GAP               1.707736332497 eV   |
           -------------------------------------------------

 * finished run on 2024/04/06 at 11:16:34.808
