   * xtb version 6.6.1 (8d0f1dd) compiled by 'conda@1efc2f54142f' on 2023-08-01
          program call               : xtb xtbopt.xyz --opt crude --input .xc2 --gfn2

   ID    Z sym.   atoms
    1    7 N      1, 17
    2    6 C      2-6, 8, 9, 11-16, 18-23, 25, 26, 28-33
    3    8 O      7, 10, 24, 27
    4    1 H      34-72
########################################################################
[WARNING] Please study the warnings concerning your input carefully
-1- readin_getIntValue: could not parse ''
########################################################################

          :  Hamiltonian                  GFN2-xTB          :
 * total energy  :   -99.2678051 Eh     change       -0.1804779E-11 Eh
 * total energy  :   -99.3732336 Eh     change       -0.1054284E+00 Eh
 * total energy  :   -99.3746427 Eh     change       -0.1409080E-02 Eh
 * total energy  :   -99.3751342 Eh     change       -0.4915769E-03 Eh
 * total energy  :   -99.3752267 Eh     change       -0.9245754E-04 Eh
   *** GEOMETRY OPTIMIZATION CONVERGED AFTER 5 ITERATIONS ***

 final structure:
================
72
 xtb: 6.6.1 (8d0f1dd)
N           -1.92184336642394        3.12115716191655        1.39435001523649
C           -1.79993635428606        2.07533759505056        0.72514318924336
C           -2.88286767641354        1.45530946745039       -0.11849877525718
C           -3.36855015911536        0.22389351973022        0.61562896176591
C           -4.45397992066348       -0.69384058798419        0.29090539619780
C           -5.28664662634285       -0.73161282857198       -0.81494422060292
O           -6.46020906861627       -1.34909429997801       -0.93053901329688
C           -7.24128542705610       -1.77461937094369        0.17060595559572
C           -4.51044734086568       -1.64704647822105        1.37406698376701
O           -4.93623666056747       -0.11127931855378       -1.94221831032028
C           -5.86175444812640       -0.07660017943856       -3.02255942881663
C           -3.53538649213879       -1.33847786902304        2.27994803582222
C           -2.85649004067512       -0.17933112741493        1.82874453723776
C           -2.20002764340957        1.05834539645648       -1.45382322831302
C           -1.25840981005365       -0.14920491856922       -1.32482372140461
C            0.03236247981228        0.17504781910589       -0.67682823965221
N            0.69229179689905       -0.61085692537086        0.16582274994073
C            2.06920052820641       -0.30919600502475        0.48593655122270
C            3.03419575809558       -0.92028795339731       -0.54860907419894
C            4.44524386105664       -0.47097786855059       -0.28959268066659
C            4.82285476560738        0.83472348989739       -0.56249717769420
C            6.11539986369544        1.26816299990724       -0.31437670639365
C            7.06322123297309        0.39899219136647        0.20619730386253
O            8.34463153048989        0.70797884030910        0.48183858656636
C            8.80655649499055        2.01369361268767        0.22369491675341
C            6.68914556601001       -0.94509731355418        0.47949720521620
O            7.67479861687270       -1.72605861288539        0.96482960441076
C            7.41594997216135       -3.08678162299124        1.21619669476690
C            5.38596807742179       -1.35168552580849        0.23631553007745
C            0.12304008612870       -1.83620693173166        0.67109166899331
C           -4.06266706794420        2.43542293723325       -0.37830493736958
C           -4.83171318669312        2.73709689436376        0.90603149880754
C           -3.62218559663741        3.74150686299649       -1.03482575513375
H           -5.15072853784333       -2.50185584784658        1.41386060025343
H           -7.03991309863742       -2.82192207065752        0.40214259753829
H           -8.27827811616783       -1.68112371006833       -0.15398215155314
H           -7.06517205280166       -1.15332893394101        1.04953659963563
H           -6.80188829821429        0.38588294364526       -2.71685050049814
H           -5.38438709763201        0.52323521359868       -3.79431206891721
H           -6.06167751196920       -1.08143469851966       -3.39728319350126
H           -3.31619534377438       -1.87562437256590        3.18298257485196
H           -2.08088427236371        0.31759434685255        2.38304345643955
H           -2.97479684444754        0.80668361891973       -2.17216146327352
H           -1.64051061800676        1.91285014663333       -1.83685877817156
H           -1.77802936163955       -0.95728637203590       -0.81239435223052
H           -1.03266880276909       -0.49298991009945       -2.34304650144952
H           -0.85558055818720        1.49586520641782        0.65519696136847
H            0.57282613018146        1.03286592478861       -1.05147591117612
H            2.30298015418820       -0.69469874173582        1.47978709123253
H            2.20669602118240        0.77468120957632        0.50090186472450
H            2.72288052670823       -0.59466088133769       -1.54421608000464
H            2.97049458578922       -2.00809753298423       -0.50856693161865
H            4.11119009889318        1.52755618168406       -0.98586191878608
H            6.37806509458255        2.28902563528790       -0.53820419718530
H            8.26564370877302        2.75532721617440        0.81954136667420
H            8.72313411136406        2.26575277685770       -0.83780086049064
H            9.85560128234939        2.01466680327883        0.51315266766900
H            8.36172326550680       -3.50590853596421        1.55413580885096
H            6.66349054575131       -3.21443238666937        2.00090482919234
H            7.09266292650270       -3.60775463860848        0.30960402061916
H            5.09278656382288       -2.36904009930041        0.44234627965752
H            0.03309611449008       -2.58619072211719       -0.11810306083489
H           -0.86862753359549       -1.64845707663128        1.09010872595969
H            0.76099123970649       -2.23378030178456        1.45633533703950
H           -4.73867510420689        1.93037106834555       -1.07105036219012
H           -4.19487866414378        3.27116313511318        1.60377632917577
H           -5.17714662731942        1.82212433910618        1.38115258810935
H           -5.69602818480363        3.35652614733199        0.67921524707785
H           -2.93139792392805        4.27778851026159       -0.39147202809004
H           -3.15376510287586        3.57007066680984       -2.00053064342363
H           -4.49303257283954        4.37218964656453       -1.19463309829607
H           -1.11770828898243        3.45209256770796        1.91793988185599

          :  Hamiltonian                  GFN2-xTB          :
         :: total energy             -99.375226711611 Eh    ::
         :: gradient norm              0.004663094759 Eh/a0 ::
         :: HOMO-LUMO gap              1.700677486070 eV    ::
         :: SCC energy              -100.748754158365 Eh    ::
         :: -> dispersion             -0.077035943048 Eh    ::
         :: repulsion energy           1.372131713584 Eh    ::

    * Orbital Energies and Occupations

         #    Occupation            Energy/Eh            Energy/eV
      -------------------------------------------------------------
         1        2.0000           -0.8515934             -23.1730
       ...           ...                  ...                  ...
        78        1.9987           -0.5267708             -14.3342
        79        1.9985           -0.5243002             -14.2669
        80        1.9983           -0.5231255             -14.2350
        81        1.9982           -0.5220046             -14.2045
        82        1.9973           -0.5156513             -14.0316
        83        1.9964           -0.5110864             -13.9074
        84        1.9949           -0.5052922             -13.7497
        85        1.9949           -0.5052513             -13.7486
        86        1.9804           -0.4839088             -13.1678
        87        1.9498           -0.4688232             -12.7573
        88        1.9299           -0.4633508             -12.6084
        89        1.8525           -0.4509309             -12.2705
        90        1.8459           -0.4501796             -12.2500 (HOMO)
        91        0.3756           -0.3876808             -10.5493 (LUMO)
        92        0.0786           -0.3602625              -9.8032
        93        0.0124           -0.3304523              -8.9921
        94        0.0029           -0.3071590              -8.3582
        95        0.0026           -0.3057271              -8.3193
        96        0.0000           -0.2347248              -6.3872
        97        0.0000           -0.2248574              -6.1187
        98        0.0000           -0.1824803              -4.9655
        99                         -0.1302794              -3.5451
       100                         -0.1003604              -2.7309
       101                         -0.0865830              -2.3560
       ...                                ...                  ...
       171                          0.5865541              15.9609
      -------------------------------------------------------------
                  HL-Gap            0.0624987 Eh            1.7007 eV

     #   Z          covCN         q      C6AA      α(0)
     1   7 N        1.773    -0.267    27.740     7.799
     2   6 C        2.832     0.104    25.680     8.304
     3   6 C        3.906     0.009    20.365     6.414
     4   6 C        3.059    -0.011    28.225     8.712
     5   6 C        3.075    -0.060    29.418     8.893
     6   6 C        2.729     0.288    22.118     7.699
     7   8 O        1.704    -0.235    17.900     5.712
     8   6 C        3.635     0.022    20.593     6.530
     9   6 C        3.019    -0.059    29.440     8.900
    10   8 O        1.704    -0.230    17.818     5.699
    11   6 C        3.646     0.022    20.536     6.513
    12   6 C        3.013    -0.050    29.221     8.867
    13   6 C        3.043    -0.058    29.403     8.894
    14   6 C        3.813    -0.072    21.875     6.657
    15   6 C        3.802    -0.068    21.800     6.647
    16   6 C        2.846     0.010    27.782     8.638
    17   7 N        2.729     0.010    21.091     6.821
    18   6 C        3.756    -0.017    20.935     6.524
    19   6 C        3.808    -0.070    21.825     6.650
    20   6 C        2.968    -0.000    28.037     8.685
    21   6 C        2.923    -0.050    29.243     8.868
    22   6 C        2.914    -0.068    29.694     8.936
    23   6 C        2.865     0.133    25.096     8.211
    24   8 O        1.706    -0.224    17.711     5.682
    25   6 C        3.645     0.026    20.475     6.503
    26   6 C        2.863     0.133    25.089     8.210
    27   8 O        1.706    -0.225    17.740     5.687
    28   6 C        3.645     0.027    20.455     6.500
    29   6 C        2.919    -0.078    29.961     8.976
    30   6 C        3.699    -0.071    22.036     6.714
    31   6 C        3.852    -0.012    20.747     6.478
    32   6 C        3.756    -0.117    22.785     6.806
    33   6 C        3.755    -0.116    22.784     6.806
    34   1 H        0.927     0.032     2.559     2.501
    35   1 H        0.924     0.072     2.068     2.249
    36   1 H        0.924     0.086     1.920     2.167
    37   1 H        0.924     0.070     2.080     2.256
    38   1 H        0.924     0.072     2.063     2.246
    39   1 H        0.925     0.082     1.954     2.186
    40   1 H        0.924     0.073     2.049     2.238
    41   1 H        0.926     0.033     2.544     2.494
    42   1 H        0.926     0.019     2.754     2.595
    43   1 H        0.925     0.074     2.047     2.238
    44   1 H        0.924     0.048     2.344     2.394
    45   1 H        0.925     0.070     2.086     2.259
    46   1 H        0.923     0.077     2.009     2.217
    47   1 H        0.922     0.011     2.867     2.648
    48   1 H        0.926     0.068     2.103     2.268
    49   1 H        0.924     0.069     2.100     2.266
    50   1 H        0.924     0.067     2.114     2.274
    51   1 H        0.924     0.053     2.278     2.361
    52   1 H        0.924     0.054     2.272     2.357
    53   1 H        0.926     0.040     2.445     2.445
    54   1 H        0.926     0.057     2.239     2.340
    55   1 H        0.924     0.053     2.280     2.361
    56   1 H        0.924     0.054     2.266     2.354
    57   1 H        0.925     0.081     1.965     2.192
    58   1 H        0.925     0.081     1.967     2.193
    59   1 H        0.924     0.050     2.319     2.381
    60   1 H        0.924     0.052     2.296     2.370
    61   1 H        0.926     0.049     2.329     2.387
    62   1 H        0.924     0.074     2.044     2.236
    63   1 H        0.924     0.086     1.914     2.163
    64   1 H        0.925     0.079     1.985     2.203
    65   1 H        0.924     0.042     2.423     2.434
    66   1 H        0.925     0.071     2.080     2.255
    67   1 H        0.925     0.033     2.538     2.491
    68   1 H        0.925     0.045     2.386     2.415
    69   1 H        0.925     0.057     2.236     2.338
    70   1 H        0.925     0.032     2.556     2.500
    71   1 H        0.925     0.050     2.319     2.381
    72   1 H        0.860     0.156     1.358     1.825

Wiberg/Mayer (AO) data.
largest (>0.10) Wiberg bond orders for each atom

     #   Z sym  total        # sym  WBO       # sym  WBO       # sym  WBO
 ---------------------------------------------------------------------------
     1   7 N    3.049 --     2 C    1.959    72 H    0.941
     2   6 C    3.923 --     1 N    1.959     3 C    0.990    47 H    0.887
     3   6 C    3.974 --     2 C    0.990     4 C    0.976    14 C    0.954
                            31 C    0.943
     4   6 C    3.862 --    13 C    1.526     5 C    1.143     3 C    0.976
     5   6 C    3.918 --     6 C    1.364     9 C    1.175     4 C    1.143
     6   6 C    3.827 --     5 C    1.364     7 O    1.142    10 O    1.132
     7   8 O    2.308 --     6 C    1.142     8 C    0.954
     8   6 C    3.911 --    37 H    0.975    36 H    0.973    35 H    0.970
                             7 O    0.954
     9   6 C    3.870 --    12 C    1.562     5 C    1.175    34 H    0.968
    10   8 O    2.308 --     6 C    1.132    11 C    0.950
    11   6 C    3.912 --    39 H    0.978    40 H    0.974    38 H    0.974
                            10 O    0.950
    12   6 C    3.909 --     9 C    1.562    13 C    1.251    41 H    0.973
    13   6 C    3.911 --     4 C    1.526    12 C    1.251    42 H    0.966
    14   6 C    3.970 --    15 C    0.985    44 H    0.972    43 H    0.964
                             3 C    0.954
    15   6 C    3.985 --    16 C    1.059    14 C    0.985    45 H    0.959
                            46 H    0.925
    16   6 C    3.612 --    17 N    1.401    15 C    1.059    48 H    0.957
    17   7 N    3.485 --    16 C    1.401    30 C    0.999    18 C    0.987
    18   6 C    3.955 --    17 N    0.987    19 C    0.968    49 H    0.967
                            50 H    0.965
    19   6 C    3.976 --    20 C    1.008    52 H    0.975    18 C    0.968
                            51 H    0.967
    20   6 C    3.947 --    21 C    1.406    29 C    1.384    19 C    1.008
    21   6 C    3.951 --    22 C    1.419    20 C    1.406    53 H    0.968
    22   6 C    3.962 --    21 C    1.419    23 C    1.383    54 H    0.963
    23   6 C    3.897 --    22 C    1.383    26 C    1.223    24 O    1.107
    24   8 O    2.254 --    23 C    1.107    25 C    0.977
    25   6 C    3.930 --    57 H    0.977    24 O    0.977    55 H    0.973
                            56 H    0.973
    26   6 C    3.900 --    29 C    1.392    23 C    1.223    27 O    1.103
    27   8 O    2.255 --    26 C    1.103    28 C    0.978
    28   6 C    3.932 --    27 O    0.978    58 H    0.977    60 H    0.973
                            59 H    0.973
    29   6 C    3.960 --    26 C    1.392    20 C    1.384    61 H    0.962
    30   6 C    3.955 --    17 N    0.999    64 H    0.977    62 H    0.966
                            63 H    0.959
    31   6 C    3.970 --    33 C    1.009    32 C    1.008    65 H    0.957
                             3 C    0.943
    32   6 C    3.978 --    31 C    1.008    68 H    0.982    67 H    0.982
                            66 H    0.973
    33   6 C    3.985 --    31 C    1.009    70 H    0.983    71 H    0.981
                            69 H    0.978
    34   1 H    0.997 --     9 C    0.968
    35   1 H    0.993 --     8 C    0.970
    36   1 H    0.991 --     8 C    0.973
    37   1 H    0.994 --     8 C    0.975
    38   1 H    0.992 --    11 C    0.974
    39   1 H    0.993 --    11 C    0.978
    40   1 H    0.992 --    11 C    0.974
    41   1 H    0.997 --    12 C    0.973
    42   1 H    0.999 --    13 C    0.966
    43   1 H    0.993 --    14 C    0.964
    44   1 H    0.997 --    14 C    0.972
    45   1 H    0.994 --    15 C    0.959
    46   1 H    0.970 --    15 C    0.925
    47   1 H    0.986 --     2 C    0.887
    48   1 H    0.995 --    16 C    0.957
    49   1 H    0.993 --    18 C    0.967
    50   1 H    0.993 --    18 C    0.965
    51   1 H    0.995 --    19 C    0.967
    52   1 H    0.997 --    19 C    0.975
    53   1 H    0.998 --    21 C    0.968
    54   1 H    0.995 --    22 C    0.963
    55   1 H    0.992 --    25 C    0.973
    56   1 H    0.992 --    25 C    0.973
    57   1 H    0.993 --    25 C    0.977
    58   1 H    0.993 --    28 C    0.977
    59   1 H    0.993 --    28 C    0.973
    60   1 H    0.993 --    28 C    0.973
    61   1 H    0.996 --    29 C    0.962
    62   1 H    0.985 --    30 C    0.966
    63   1 H    0.986 --    30 C    0.959
    64   1 H    0.993 --    30 C    0.977
    65   1 H    0.991 --    31 C    0.957
    66   1 H    0.990 --    32 C    0.973
    67   1 H    0.997 --    32 C    0.982
    68   1 H    0.995 --    32 C    0.982
    69   1 H    0.994 --    33 C    0.978
    70   1 H    0.997 --    33 C    0.983
    71   1 H    0.994 --    33 C    0.981
    72   1 H    0.970 --     1 N    0.941
 ---------------------------------------------------------------------------

molecular dipole:
                 x           y           z       tot (Debye)
 q only:       -0.624      -0.779      -0.929
   full:       -0.500      -1.052      -0.983       3.874

           -------------------------------------------------
          | TOTAL ENERGY              -99.375226711611 Eh   |
          | GRADIENT NORM               0.004663094759 Eh/α |
          | HOMO-LUMO GAP               1.700677486070 eV   |
           -------------------------------------------------

 * finished run on 2024/04/06 at 11:16:35.929
