   * xtb version 6.6.1 (8d0f1dd) compiled by 'conda@1efc2f54142f' on 2023-08-01
          program call               : xtb struc.xyz --opt loose --input .xc1 --gfn2

   ID    Z sym.   atoms
    1    7 N      1, 17
    2    6 C      2-6, 8, 9, 11-16, 18-23, 25, 26, 28-33
    3    8 O      7, 10, 24, 27
    4    1 H      34-72
constraining bond 20 51 to    2.7133300 Å, actual value:    2.1386225 Å

          :  Hamiltonian                  GFN2-xTB          :
 * total energy  :   -99.4631050 Eh     change       -0.4035485E-08 Eh
 * total energy  :   -99.5759509 Eh     change       -0.1128459E+00 Eh
 * total energy  :   -99.7047134 Eh     change       -0.1287625E+00 Eh
 * total energy  :   -99.5057634 Eh     change        0.1989501E+00 Eh
 * total energy  :   -99.7668648 Eh     change       -0.2611014E+00 Eh
 * total energy  :   -99.7811192 Eh     change       -0.1425440E-01 Eh
 * total energy  :   -99.8014880 Eh     change       -0.2036883E-01 Eh
 * total energy  :   -99.8160871 Eh     change       -0.1459902E-01 Eh
 * total energy  :   -99.8319246 Eh     change       -0.1583757E-01 Eh
 * total energy  :   -99.8462154 Eh     change       -0.1429080E-01 Eh
 * total energy  :   -99.9288644 Eh     change       -0.7939567E-04 Eh
 * total energy  :   -99.9289470 Eh     change       -0.8260201E-04 Eh
 * total energy  :   -99.9290264 Eh     change       -0.7945960E-04 Eh
 * total energy  :   -99.9291063 Eh     change       -0.7982310E-04 Eh
 * total energy  :   -99.9291978 Eh     change       -0.9152514E-04 Eh
 * total energy  :   -99.9293046 Eh     change       -0.1068026E-03 Eh
 * total energy  :   -99.9294463 Eh     change       -0.1417612E-03 Eh
 * total energy  :   -99.9295868 Eh     change       -0.1404972E-03 Eh
 * total energy  :   -99.9296296 Eh     change       -0.4271585E-04 Eh
   *** GEOMETRY OPTIMIZATION CONVERGED AFTER 76 ITERATIONS ***

 final structure:
================
72
 xtb: 6.6.1 (8d0f1dd)
N           -1.14551367875263        2.74736804543289        2.26026426530318
C           -1.17687558146338        1.99230088923319        1.26668814269870
C           -2.32527249131976        1.89046586619218        0.30116309113488
C           -2.95296753009293        0.51013711239600        0.40962485017853
C           -3.86373592015951        0.07883467852706       -0.55738743012153
C           -4.47650113801586       -1.16023726303479       -0.47165492078542
O           -5.36914204686523       -1.65211302479348       -1.35669220234022
C           -5.79643985731469       -0.84306243810662       -2.42659120325432
C           -4.17145860284462       -2.01867163103296        0.61894715517218
O           -4.80350263034461       -3.21009946561481        0.61460189063251
C           -4.62418993676099       -4.08359925023238        1.70502961573982
C           -3.27505994689101       -1.58027913757738        1.58007946294556
C           -2.67555091966277       -0.33120905168731        1.47568999856984
C           -1.70107650778716        2.10127082438569       -1.10378981185368
C           -0.91736336151973        0.89247680978232       -1.64557106236712
C            0.36906283266142        0.64207470225297       -0.95584347946748
N            0.79740096150910       -0.55417099611569       -0.55963019661841
C            2.17192466684570       -0.74564664398230       -0.14385191169614
C            2.98013258189152       -1.35504622813908       -1.26859613181764
C            3.77410075517400       -0.50783650235916       -2.25645256742096
C            3.92006209686743        0.93149630202669       -2.01658467736495
C            4.52726355983608        1.43588036694019       -0.92156623596525
C            5.18592006276889        0.60572755452197        0.03763538473635
O            5.86067341144594        1.08172217929817        1.11669349141676
C            6.04634917155135        2.47050554438823        1.26651836340734
C            5.24043345228759       -0.76172122970464       -0.15368451912624
O            6.03871636353272       -1.46216520499281        0.68009110707862
C            6.06251403681598       -2.86992169535541        0.62444615141767
C            4.48834579164739       -1.40621715611918       -1.23049764599281
C           -0.04883643725723       -1.72307453625075       -0.60422078947751
C           -3.44342802433155        2.94662474638009        0.54794796404761
C           -4.13662341455173        2.72381568239945        1.89009129691029
C           -2.94128354761500        4.38502250290052        0.46061716750442
H           -4.10749622867700        0.73077454422069       -1.37983431740162
H           -6.26765026875194        0.07793692564954       -2.07024045088993
H           -6.53150704888648       -1.43723331923421       -2.96589009525885
H           -4.96940085585894       -0.59538006967615       -3.10015131677162
H           -4.93384066695682       -3.61933219348463        2.64587280844872
H           -5.26103781350219       -4.94170775450303        1.49939629171563
H           -3.58429025818746       -4.41640108900358        1.78655683220776
H           -3.04172352432048       -2.20005293133867        2.43043501550913
H           -2.00503018254335       -0.01251839884993        2.25853251608464
H           -2.49679657031409        2.33110833667359       -1.81176285781143
H           -1.03786109894872        2.96637468195874       -1.06319350787253
H           -1.55528581575961        0.01117377776236       -1.62744348541515
H           -0.68383603031028        1.11601164828196       -2.69473229490440
H           -0.33420258134017        1.34125583726223        0.95600118774996
H            1.09043107280725        1.44466396428679       -0.92321454592006
H            2.18611349115443       -1.40553816310919        0.73019686938887
H            2.60185631064263        0.21440570170930        0.14455168349562
H            3.74691354946313       -0.75563063184607       -3.06125393948235
H            2.50927643759466       -2.22784744240858       -1.70565425974267
H            3.56455087871491        1.59092377157665       -2.79344134637734
H            4.59768276465325        2.50567618485851       -0.80442199573600
H            5.09670065182852        2.99058954039857        1.43057398376035
H            6.56168440293337        2.90590748512174        0.40586273741715
H            6.67093820426440        2.58272171871652        2.15092398719391
H            6.60723949274924       -3.18585158515525        1.51252028657988
H            5.05455003401854       -3.29512607945242        0.64452489307290
H            6.59449033928433       -3.22959202930016       -0.26170658764214
H            4.93067520205045       -2.32196626132446       -1.60474814839920
H           -0.27176382809614       -2.01442933211122       -1.63303924466738
H           -0.98946930043950       -1.53210824049755       -0.08203804864374
H            0.45611520713359       -2.55067960939426       -0.11262495263159
H           -4.18743780078255        2.79740005181953       -0.24336101364663
H           -3.42803904316046        2.85566800553437        2.70135249686678
H           -4.56420817422112        1.72607940478301        1.95170275853735
H           -4.93885481324296        3.44697844144273        2.00991811445780
H           -2.18376146610872        4.56513005958404        1.21701185893754
H           -2.53219057821109        4.61434153835098       -0.51973645313242
H           -3.77076302564169        5.06341845828663        0.64201523130704
H           -0.30433363930702        2.75634222292243        2.82828953901062

          :  Hamiltonian                  GFN2-xTB          :
         :: total energy             -99.929629554432 Eh    ::
         :: gradient norm              0.002584660207 Eh/a0 ::
         :: HOMO-LUMO gap              1.411130085742 eV    ::
         :: SCC energy              -100.746124530959 Eh    ::
         :: -> dispersion             -0.077538357028 Eh    ::
         :: repulsion energy           1.439286554826 Eh    ::

    * Orbital Energies and Occupations

         #    Occupation            Energy/Eh            Energy/eV
      -------------------------------------------------------------
         1        2.0000           -0.8194586             -22.2986
       ...           ...                  ...                  ...
        78        1.9991           -0.5363184             -14.5940
        79        1.9987           -0.5318187             -14.4715
        80        1.9984           -0.5281850             -14.3726
        81        1.9983           -0.5272140             -14.3462
        82        1.9976           -0.5215508             -14.1921
        83        1.9962           -0.5142018             -13.9921
        84        1.9955           -0.5116046             -13.9215
        85        1.9948           -0.5092894             -13.8585
        86        1.9947           -0.5088884             -13.8476
        87        1.9824           -0.4898285             -13.3289
        88        1.9420           -0.4706505             -12.8071
        89        1.8812           -0.4587849             -12.4842
        90        1.7542           -0.4461626             -12.1407 (HOMO)
        91        0.4250           -0.3943045             -10.7296 (LUMO)
        92        0.0256           -0.3462150              -9.4210
        93        0.0150           -0.3377067              -9.1895
        94        0.0038           -0.3158984              -8.5960
        95        0.0031           -0.3127201              -8.5095
        96        0.0002           -0.2659505              -7.2369
        97        0.0000           -0.1901544              -5.1744
        98        0.0000           -0.1688576              -4.5948
        99                         -0.1319551              -3.5907
       100                         -0.0811558              -2.2084
       101                         -0.0678473              -1.8462
       ...                                ...                  ...
       171                          0.8480347              23.0762
      -------------------------------------------------------------
                  HL-Gap            0.0518581 Eh            1.4111 eV

     #   Z          covCN         q      C6AA      α(0)
     1   7 N        1.774    -0.270    27.825     7.811
     2   6 C        2.828     0.102    25.739     8.313
     3   6 C        3.907     0.006    20.417     6.423
     4   6 C        2.974     0.001    27.993     8.679
     5   6 C        2.920    -0.081    30.027     8.986
     6   6 C        2.862     0.128    25.188     8.226
     7   8 O        1.706    -0.232    17.841     5.703
     8   6 C        3.644     0.028    20.439     6.498
     9   6 C        2.864     0.127    25.204     8.229
    10   8 O        1.706    -0.230    17.819     5.699
    11   6 C        3.645     0.027    20.453     6.500
    12   6 C        2.914    -0.075    29.872     8.962
    13   6 C        2.921    -0.053    29.324     8.880
    14   6 C        3.813    -0.064    21.722     6.634
    15   6 C        3.802    -0.070    21.831     6.652
    16   6 C        2.841     0.005    27.909     8.658
    17   7 N        2.730     0.005    21.171     6.834
    18   6 C        3.752    -0.019    20.971     6.530
    19   6 C        3.858    -0.037    21.195     6.547
    20   6 C        3.865    -0.040    21.248     6.555
    21   6 C        2.899    -0.055    29.356     8.884
    22   6 C        2.902    -0.066    29.635     8.926
    23   6 C        2.849     0.112    25.521     8.280
    24   8 O        1.706    -0.242    18.001     5.728
    25   6 C        3.641     0.029    20.431     6.500
    26   6 C        2.846     0.116    25.442     8.267
    27   8 O        1.706    -0.220    17.651     5.672
    28   6 C        3.641     0.024    20.528     6.515
    29   6 C        3.862    -0.035    21.149     6.540
    30   6 C        3.699    -0.071    22.030     6.713
    31   6 C        3.853    -0.007    20.667     6.466
    32   6 C        3.756    -0.118    22.821     6.811
    33   6 C        3.755    -0.119    22.833     6.813
    34   1 H        0.926     0.051     2.304     2.374
    35   1 H        0.924     0.054     2.276     2.359
    36   1 H        0.925     0.081     1.973     2.196
    37   1 H        0.924     0.046     2.375     2.410
    38   1 H        0.924     0.055     2.258     2.350
    39   1 H        0.925     0.081     1.972     2.196
    40   1 H        0.924     0.047     2.353     2.399
    41   1 H        0.926     0.052     2.293     2.368
    42   1 H        0.926     0.040     2.452     2.449
    43   1 H        0.925     0.060     2.199     2.319
    44   1 H        0.924     0.053     2.287     2.365
    45   1 H        0.925     0.067     2.123     2.278
    46   1 H        0.924     0.078     2.000     2.212
    47   1 H        0.922     0.005     2.977     2.698
    48   1 H        0.926     0.067     2.116     2.275
    49   1 H        0.924     0.068     2.106     2.269
    50   1 H        0.924     0.074     2.038     2.233
    51   1 H        0.930     0.091     1.864     2.135
    52   1 H        0.925     0.052     2.289     2.366
    53   1 H        0.926     0.050     2.321     2.383
    54   1 H        0.926     0.057     2.234     2.337
    55   1 H        0.924     0.046     2.371     2.408
    56   1 H        0.924     0.054     2.266     2.354
    57   1 H        0.925     0.080     1.976     2.198
    58   1 H        0.925     0.087     1.911     2.162
    59   1 H        0.924     0.049     2.330     2.387
    60   1 H        0.924     0.058     2.219     2.329
    61   1 H        0.925     0.059     2.206     2.323
    62   1 H        0.924     0.074     2.039     2.233
    63   1 H        0.924     0.081     1.967     2.193
    64   1 H        0.925     0.077     2.006     2.215
    65   1 H        0.924     0.037     2.495     2.470
    66   1 H        0.925     0.067     2.115     2.274
    67   1 H        0.925     0.035     2.513     2.479
    68   1 H        0.925     0.051     2.305     2.374
    69   1 H        0.925     0.062     2.181     2.310
    70   1 H        0.925     0.034     2.529     2.487
    71   1 H        0.925     0.054     2.271     2.357
    72   1 H        0.860     0.156     1.362     1.828

Wiberg/Mayer (AO) data.
largest (>0.10) Wiberg bond orders for each atom

     #   Z sym  total        # sym  WBO       # sym  WBO       # sym  WBO
 ---------------------------------------------------------------------------
     1   7 N    3.040 --     2 C    1.956    72 H    0.942
     2   6 C    3.928 --     1 N    1.956     3 C    0.994    47 H    0.900
     3   6 C    3.976 --     2 C    0.994     4 C    0.971    14 C    0.957
                            31 C    0.942
     4   6 C    3.951 --    13 C    1.415     5 C    1.367     3 C    0.971
     5   6 C    3.963 --     6 C    1.402     4 C    1.367    34 H    0.958
     6   6 C    3.907 --     5 C    1.402     9 C    1.224     7 O    1.097
     7   8 O    2.254 --     6 C    1.097     8 C    0.979
     8   6 C    3.933 --     7 O    0.979    36 H    0.977    37 H    0.974
                            35 H    0.974
     9   6 C    3.904 --    12 C    1.393     6 C    1.224    10 O    1.100
    10   8 O    2.252 --     9 C    1.100    11 C    0.978
    11   6 C    3.932 --    10 O    0.978    39 H    0.977    40 H    0.974
                            38 H    0.974
    12   6 C    3.964 --    13 C    1.402     9 C    1.393    41 H    0.964
    13   6 C    3.956 --     4 C    1.415    12 C    1.402    42 H    0.962
    14   6 C    3.972 --    15 C    0.981    44 H    0.973    43 H    0.968
                             3 C    0.957
    15   6 C    3.986 --    16 C    1.058    14 C    0.981    45 H    0.961
                            46 H    0.929
    16   6 C    3.570 --    17 N    1.386    15 C    1.058    48 H    0.958
    17   7 N    3.460 --    16 C    1.386    30 C    0.999    18 C    0.983
    18   6 C    3.962 --    19 C    0.994    17 N    0.983    50 H    0.958
                            49 H    0.958
    19   6 C    3.885 --    18 C    0.994    52 H    0.967    29 C    0.915
                            20 C    0.905
    20   6 C    3.941 --    21 C    1.094    51 H    0.974    19 C    0.905
                            29 C    0.886
    21   6 C    3.903 --    22 C    1.685    20 C    1.094    53 H    0.966
    22   6 C    3.972 --    21 C    1.685    23 C    1.180    54 H    0.961
    23   6 C    3.854 --    26 C    1.421    22 C    1.180    24 O    1.076
    24   8 O    2.209 --    23 C    1.076    25 C    0.979
    25   6 C    3.932 --    24 O    0.979    57 H    0.976    56 H    0.974
                            55 H    0.974
    26   6 C    3.833 --    23 C    1.421    27 O    1.108    29 C    1.078
    27   8 O    2.255 --    26 C    1.108    28 C    0.976
    28   6 C    3.928 --    27 O    0.976    59 H    0.975    58 H    0.975
                            60 H    0.971
    29   6 C    3.944 --    26 C    1.078    61 H    0.961    19 C    0.915
                            20 C    0.886
    30   6 C    3.958 --    17 N    0.999    64 H    0.978    62 H    0.967
                            63 H    0.960
    31   6 C    3.973 --    33 C    1.009    32 C    1.008    65 H    0.961
                             3 C    0.942
    32   6 C    3.980 --    31 C    1.008    67 H    0.982    68 H    0.981
                            66 H    0.975
    33   6 C    3.983 --    31 C    1.009    70 H    0.983    71 H    0.980
                            69 H    0.976
    34   1 H    0.996 --     5 C    0.958
    35   1 H    0.994 --     8 C    0.974
    36   1 H    0.993 --     8 C    0.977
    37   1 H    0.994 --     8 C    0.974
    38   1 H    0.993 --    11 C    0.974
    39   1 H    0.993 --    11 C    0.977
    40   1 H    0.994 --    11 C    0.974
    41   1 H    0.996 --    12 C    0.964
    42   1 H    0.998 --    13 C    0.962
    43   1 H    0.995 --    14 C    0.968
    44   1 H    0.996 --    14 C    0.973
    45   1 H    0.995 --    15 C    0.961
    46   1 H    0.970 --    15 C    0.929
    47   1 H    0.987 --     2 C    0.900
    48   1 H    0.995 --    16 C    0.958
    49   1 H    0.990 --    18 C    0.958
    50   1 H    0.993 --    18 C    0.958
    51   1 H    0.990 --    20 C    0.974
    52   1 H    0.997 --    19 C    0.967
    53   1 H    0.997 --    21 C    0.966
    54   1 H    0.996 --    22 C    0.961
    55   1 H    0.992 --    25 C    0.974
    56   1 H    0.992 --    25 C    0.974
    57   1 H    0.993 --    25 C    0.976
    58   1 H    0.991 --    28 C    0.975
    59   1 H    0.994 --    28 C    0.975
    60   1 H    0.991 --    28 C    0.971
    61   1 H    0.992 --    29 C    0.961
    62   1 H    0.985 --    30 C    0.967
    63   1 H    0.986 --    30 C    0.960
    64   1 H    0.994 --    30 C    0.978
    65   1 H    0.993 --    31 C    0.961
    66   1 H    0.992 --    32 C    0.975
    67   1 H    0.997 --    32 C    0.982
    68   1 H    0.994 --    32 C    0.981
    69   1 H    0.993 --    33 C    0.976
    70   1 H    0.997 --    33 C    0.983
    71   1 H    0.994 --    33 C    0.980
    72   1 H    0.971 --     1 N    0.942
 ---------------------------------------------------------------------------

molecular dipole:
                 x           y           z       tot (Debye)
 q only:        0.996      -0.684      -0.994
   full:        1.390      -0.872      -1.250       5.242

           -------------------------------------------------
          | TOTAL ENERGY              -99.929629554432 Eh   |
          | GRADIENT NORM               0.002584660207 Eh/α |
          | HOMO-LUMO GAP               1.411130085742 eV   |
           -------------------------------------------------

 * finished run on 2024/04/06 at 11:16:59.854
