   * xtb version 6.6.1 (8d0f1dd) compiled by 'conda@1efc2f54142f' on 2023-08-01
          program call               : xtb xtbopt.xyz --opt crude --input .xc2 --gfn2

   ID    Z sym.   atoms
    1    7 N      1, 17
    2    6 C      2-6, 8, 9, 11-16, 18-23, 25, 26, 28-33
    3    8 O      7, 10, 24, 27
    4    1 H      34-72
########################################################################
[WARNING] Please study the warnings concerning your input carefully
-1- readin_getIntValue: could not parse ''
########################################################################

          :  Hamiltonian                  GFN2-xTB          :
 * total energy  :   -99.3047084 Eh     change       -0.4121148E-12 Eh
 * total energy  :   -99.3638881 Eh     change       -0.5917972E-01 Eh
 * total energy  :   -99.3649977 Eh     change       -0.1109585E-02 Eh
 * total energy  :   -99.3654424 Eh     change       -0.4446588E-03 Eh
   *** GEOMETRY OPTIMIZATION CONVERGED AFTER 4 ITERATIONS ***

 final structure:
================
72
 xtb: 6.6.1 (8d0f1dd)
N           -1.14606885569401        2.74944172667333        2.26253038345401
C           -1.17602702445770        1.99170697515400        1.27045402160300
C           -2.32293851527659        1.89011716092153        0.30318344875590
C           -2.95128054236711        0.50985699407399        0.41065260987408
C           -3.86205889935671        0.07978449934806       -0.55677306302198
C           -4.47436078673190       -1.15967098992317       -0.47292027249345
O           -5.36417557291528       -1.65206396187144       -1.36052009123796
C           -5.79508355507002       -0.84098321777477       -2.42760406723486
C           -4.17105242264208       -2.01857226446280        0.61774953333867
O           -4.80619614736340       -3.20823115531655        0.61436398984448
C           -4.62659508680769       -4.08218381602748        1.70437347404198
C           -3.27351659257911       -1.58192155833910        1.57866996185733
C           -2.67299424189835       -0.33330233650923        1.47506794140417
C           -1.69931000092226        2.09981086319293       -1.10187465718088
C           -0.91431378157757        0.89181960262267       -1.64498351096893
C            0.36969104430268        0.63770018831849       -0.95297035644623
N            0.79345865184864       -0.55811914081949       -0.55173362440454
C            2.16672272498630       -0.75283863092216       -0.13507066758001
C            2.97584982089615       -1.35852700018605       -1.26360360257742
C            3.77044842222988       -0.49794995851392       -2.22230441801042
C            3.91657499205923        0.93670892828099       -2.01197393154407
C            4.52439086179802        1.43997491283709       -0.91512001248068
C            5.17898311304781        0.60854796420886        0.04679403894134
O            5.85170610690012        1.08827691732166        1.12685622283731
C            6.04498734456691        2.47561089046387        1.27056836163221
C            5.23678994703135       -0.75912238659346       -0.14152371868925
O            6.03602760574539       -1.45803692922137        0.69210126272845
C            6.06826856292701       -2.86513486687695        0.62759568070621
C            4.48724701447229       -1.40532990005893       -1.22088038620672
C           -0.05323492146066       -1.72655858778987       -0.60145773129305
C           -3.44089745189921        2.94697002060279        0.54874243345264
C           -4.13388518893994        2.72671323943620        1.89138163269303
C           -2.93900546300807        4.38533300935746        0.45893520547661
H           -4.10661170931706        0.73225037222137       -1.37858181906879
H           -6.26517857917847        0.07928753826779       -2.06810154528198
H           -6.53178464015196       -1.43446795617019       -2.96541448560292
H           -4.97030808690882       -0.59208843990895       -3.10356386662551
H           -4.93585345378396       -3.61800199812001        2.64541745646081
H           -5.26365586133828       -4.94006604720302        1.49878635880908
H           -3.58674870925817       -4.41502593964859        1.78542300734544
H           -3.04004548305386       -2.20277793275921        2.42817781720621
H           -2.00129769084990       -0.01632204193779        2.25760724037743
H           -2.49615074424235        2.32667710309939       -1.80955668991862
H           -1.03763977445870        2.96609387722869       -1.06346535531451
H           -1.55293112154758        0.01094258888333       -1.63371050042868
H           -0.67685983061309        1.12113298489318       -2.69213019396038
H           -0.33375143603746        1.33924180006518        0.96461914198940
H            1.09194166925772        1.43955052545443       -0.91807660138589
H            2.17922108750075       -1.41416119695966        0.73793519341106
H            2.59788770583163        0.20626384349272        0.15568856255109
H            3.74056365172170       -0.81072035545144       -3.25476900011857
H            2.50771845365202       -2.22932231401986       -1.70476094616079
H            3.55827918952802        1.59296996457455       -2.78908221423317
H            4.59745036720969        2.50931342356573       -0.79666920924089
H            5.09862129096602        3.00417472211476        1.42767264193223
H            6.56671031961617        2.90377327661976        0.40961636739732
H            6.66635553485407        2.58849339552778        2.15697919558900
H            6.61502386022043       -3.18385614372914        1.51339920028097
H            5.06292403948406       -3.29589731028133        0.64432812431965
H            6.60219167123997       -3.21567374496172       -0.26093228448061
H            4.93401073513622       -2.31591665682955       -1.59962513091127
H           -0.27358255920089       -2.01539248291474       -1.63142598487301
H           -0.99502593398286       -1.53650614337860       -0.08105764244566
H            0.45059155863563       -2.55541740443865       -0.11077417510684
H           -4.18517014555275        2.79651541984539       -0.24205384649788
H           -3.42606129910077        2.86333047239486        2.70253762405806
H           -4.55884713337707        1.72805442267194        1.95629800123837
H           -4.93808130842325        3.44823227821239        2.00837963357551
H           -2.18100047694369        4.56682145605418        1.21446304261178
H           -2.53093375374274        4.61358176119025       -0.52206537140730
H           -3.76866948496229        5.06361578127681        0.64009422763024
H           -0.30493748366292        2.75560943192109        2.83095277762865

          :  Hamiltonian                  GFN2-xTB          :
         :: total energy             -99.365442358771 Eh    ::
         :: gradient norm              0.004394554960 Eh/a0 ::
         :: HOMO-LUMO gap              1.415601441708 eV    ::
         :: SCC energy              -100.723174810786 Eh    ::
         :: -> dispersion             -0.077512785720 Eh    ::
         :: repulsion energy           1.355602273024 Eh    ::

    * Orbital Energies and Occupations

         #    Occupation            Energy/Eh            Energy/eV
      -------------------------------------------------------------
         1        2.0000           -0.8198168             -22.3084
       ...           ...                  ...                  ...
        78        1.9991           -0.5363930             -14.5960
        79        1.9987           -0.5320164             -14.4769
        80        1.9984           -0.5282062             -14.3732
        81        1.9983           -0.5272698             -14.3477
        82        1.9976           -0.5216737             -14.1955
        83        1.9962           -0.5142780             -13.9942
        84        1.9955           -0.5116739             -13.9234
        85        1.9948           -0.5092857             -13.8584
        86        1.9946           -0.5089362             -13.8489
        87        1.9823           -0.4899478             -13.3322
        88        1.9418           -0.4707401             -12.8095
        89        1.8809           -0.4589056             -12.4875
        90        1.7560           -0.4464601             -12.1488 (HOMO)
        91        0.4243           -0.3944377             -10.7332 (LUMO)
        92        0.0254           -0.3462861              -9.4229
        93        0.0150           -0.3378604              -9.1936
        94        0.0038           -0.3160205              -8.5994
        95        0.0031           -0.3128444              -8.5129
        96        0.0002           -0.2658611              -7.2344
        97        0.0000           -0.1902672              -5.1774
        98        0.0000           -0.1666231              -4.5340
        99                         -0.1296462              -3.5279
       100                         -0.0811020              -2.2069
       101                         -0.0684603              -1.8629
       ...                                ...                  ...
       171                          0.5727021              15.5840
      -------------------------------------------------------------
                  HL-Gap            0.0520224 Eh            1.4156 eV

     #   Z          covCN         q      C6AA      α(0)
     1   7 N        1.774    -0.270    27.829     7.812
     2   6 C        2.828     0.102    25.741     8.314
     3   6 C        3.907     0.006    20.416     6.422
     4   6 C        2.974     0.001    27.992     8.678
     5   6 C        2.920    -0.081    30.025     8.986
     6   6 C        2.862     0.128    25.189     8.227
     7   8 O        1.706    -0.232    17.842     5.703
     8   6 C        3.644     0.028    20.440     6.498
     9   6 C        2.864     0.127    25.203     8.229
    10   8 O        1.706    -0.230    17.816     5.699
    11   6 C        3.645     0.027    20.453     6.500
    12   6 C        2.914    -0.075    29.873     8.963
    13   6 C        2.921    -0.053    29.324     8.880
    14   6 C        3.812    -0.064    21.722     6.634
    15   6 C        3.802    -0.070    21.831     6.652
    16   6 C        2.841     0.005    27.900     8.656
    17   7 N        2.730     0.006    21.164     6.833
    18   6 C        3.752    -0.018    20.962     6.529
    19   6 C        3.859    -0.035    21.164     6.543
    20   6 C        3.865    -0.022    20.917     6.504
    21   6 C        2.898    -0.051    29.258     8.869
    22   6 C        2.904    -0.065    29.622     8.924
    23   6 C        2.849     0.112    25.524     8.280
    24   8 O        1.706    -0.242    18.011     5.730
    25   6 C        3.641     0.030    20.425     6.499
    26   6 C        2.846     0.117    25.425     8.264
    27   8 O        1.706    -0.220    17.647     5.672
    28   6 C        3.641     0.024    20.525     6.514
    29   6 C        3.863    -0.034    21.137     6.538
    30   6 C        3.699    -0.071    22.031     6.713
    31   6 C        3.853    -0.007    20.668     6.466
    32   6 C        3.756    -0.118    22.821     6.811
    33   6 C        3.755    -0.119    22.833     6.813
    34   1 H        0.926     0.051     2.304     2.374
    35   1 H        0.924     0.054     2.276     2.359
    36   1 H        0.925     0.081     1.972     2.196
    37   1 H        0.924     0.046     2.374     2.410
    38   1 H        0.924     0.055     2.258     2.350
    39   1 H        0.925     0.081     1.972     2.196
    40   1 H        0.924     0.047     2.353     2.399
    41   1 H        0.926     0.052     2.293     2.368
    42   1 H        0.926     0.040     2.453     2.449
    43   1 H        0.925     0.060     2.197     2.318
    44   1 H        0.924     0.053     2.286     2.364
    45   1 H        0.925     0.067     2.123     2.279
    46   1 H        0.923     0.078     1.998     2.210
    47   1 H        0.922     0.005     2.979     2.699
    48   1 H        0.926     0.067     2.118     2.276
    49   1 H        0.924     0.068     2.106     2.269
    50   1 H        0.924     0.074     2.041     2.234
    51   1 H        0.926     0.058     2.228     2.334
    52   1 H        0.925     0.055     2.264     2.353
    53   1 H        0.926     0.052     2.298     2.370
    54   1 H        0.926     0.058     2.226     2.333
    55   1 H        0.924     0.046     2.375     2.410
    56   1 H        0.924     0.054     2.271     2.357
    57   1 H        0.925     0.080     1.977     2.199
    58   1 H        0.925     0.087     1.909     2.161
    59   1 H        0.924     0.049     2.328     2.386
    60   1 H        0.924     0.058     2.219     2.330
    61   1 H        0.925     0.061     2.184     2.311
    62   1 H        0.924     0.074     2.038     2.233
    63   1 H        0.924     0.081     1.964     2.191
    64   1 H        0.925     0.077     2.006     2.215
    65   1 H        0.924     0.037     2.495     2.470
    66   1 H        0.925     0.067     2.113     2.273
    67   1 H        0.925     0.035     2.513     2.479
    68   1 H        0.925     0.051     2.305     2.374
    69   1 H        0.925     0.062     2.181     2.309
    70   1 H        0.925     0.034     2.529     2.487
    71   1 H        0.925     0.054     2.270     2.356
    72   1 H        0.860     0.156     1.363     1.829

Wiberg/Mayer (AO) data.
largest (>0.10) Wiberg bond orders for each atom

     #   Z sym  total        # sym  WBO       # sym  WBO       # sym  WBO
 ---------------------------------------------------------------------------
     1   7 N    3.039 --     2 C    1.956    72 H    0.942
     2   6 C    3.928 --     1 N    1.956     3 C    0.994    47 H    0.901
     3   6 C    3.976 --     2 C    0.994     4 C    0.971    14 C    0.957
                            31 C    0.942
     4   6 C    3.951 --    13 C    1.414     5 C    1.367     3 C    0.971
     5   6 C    3.963 --     6 C    1.402     4 C    1.367    34 H    0.958
     6   6 C    3.907 --     5 C    1.402     9 C    1.224     7 O    1.097
     7   8 O    2.254 --     6 C    1.097     8 C    0.979
     8   6 C    3.933 --     7 O    0.979    36 H    0.977    37 H    0.974
                            35 H    0.974
     9   6 C    3.904 --    12 C    1.393     6 C    1.224    10 O    1.100
    10   8 O    2.252 --     9 C    1.100    11 C    0.978
    11   6 C    3.932 --    10 O    0.978    39 H    0.977    40 H    0.974
                            38 H    0.974
    12   6 C    3.964 --    13 C    1.402     9 C    1.393    41 H    0.964
    13   6 C    3.956 --     4 C    1.414    12 C    1.402    42 H    0.962
    14   6 C    3.971 --    15 C    0.980    44 H    0.973    43 H    0.968
                             3 C    0.957
    15   6 C    3.986 --    16 C    1.059    14 C    0.980    45 H    0.961
                            46 H    0.929
    16   6 C    3.570 --    17 N    1.387    15 C    1.059    48 H    0.958
    17   7 N    3.461 --    16 C    1.387    30 C    0.998    18 C    0.984
    18   6 C    3.962 --    19 C    0.991    17 N    0.984    49 H    0.959
                            50 H    0.958
    19   6 C    3.884 --    18 C    0.991    52 H    0.967    20 C    0.912
                            29 C    0.909
    20   6 C    3.943 --    21 C    1.098    51 H    0.966    19 C    0.912
                            29 C    0.889
    21   6 C    3.903 --    22 C    1.681    20 C    1.098    53 H    0.966
    22   6 C    3.972 --    21 C    1.681    23 C    1.181    54 H    0.961
    23   6 C    3.854 --    26 C    1.422    22 C    1.181    24 O    1.075
    24   8 O    2.208 --    23 C    1.075    25 C    0.980
    25   6 C    3.932 --    24 O    0.980    57 H    0.976    56 H    0.974
                            55 H    0.973
    26   6 C    3.834 --    23 C    1.422    27 O    1.108    29 C    1.077
    27   8 O    2.256 --    26 C    1.108    28 C    0.976
    28   6 C    3.928 --    27 O    0.976    59 H    0.975    58 H    0.975
                            60 H    0.970
    29   6 C    3.942 --    26 C    1.077    61 H    0.961    19 C    0.909
                            20 C    0.889
    30   6 C    3.958 --    17 N    0.998    64 H    0.978    62 H    0.967
                            63 H    0.960
    31   6 C    3.973 --    33 C    1.009    32 C    1.008    65 H    0.961
                             3 C    0.942
    32   6 C    3.980 --    31 C    1.008    67 H    0.982    68 H    0.981
                            66 H    0.975
    33   6 C    3.983 --    31 C    1.009    70 H    0.983    71 H    0.980
                            69 H    0.976
    34   1 H    0.996 --     5 C    0.958
    35   1 H    0.994 --     8 C    0.974
    36   1 H    0.993 --     8 C    0.977
    37   1 H    0.994 --     8 C    0.974
    38   1 H    0.993 --    11 C    0.974
    39   1 H    0.993 --    11 C    0.977
    40   1 H    0.994 --    11 C    0.974
    41   1 H    0.996 --    12 C    0.964
    42   1 H    0.998 --    13 C    0.962
    43   1 H    0.995 --    14 C    0.968
    44   1 H    0.996 --    14 C    0.973
    45   1 H    0.995 --    15 C    0.961
    46   1 H    0.970 --    15 C    0.929
    47   1 H    0.987 --     2 C    0.901
    48   1 H    0.995 --    16 C    0.958
    49   1 H    0.990 --    18 C    0.959
    50   1 H    0.993 --    18 C    0.958
    51   1 H    0.993 --    20 C    0.966
    52   1 H    0.996 --    19 C    0.967
    53   1 H    0.997 --    21 C    0.966
    54   1 H    0.996 --    22 C    0.961
    55   1 H    0.992 --    25 C    0.973
    56   1 H    0.992 --    25 C    0.974
    57   1 H    0.993 --    25 C    0.976
    58   1 H    0.991 --    28 C    0.975
    59   1 H    0.994 --    28 C    0.975
    60   1 H    0.991 --    28 C    0.970
    61   1 H    0.992 --    29 C    0.961
    62   1 H    0.985 --    30 C    0.967
    63   1 H    0.986 --    30 C    0.960
    64   1 H    0.994 --    30 C    0.978
    65   1 H    0.993 --    31 C    0.961
    66   1 H    0.992 --    32 C    0.975
    67   1 H    0.997 --    32 C    0.982
    68   1 H    0.994 --    32 C    0.981
    69   1 H    0.993 --    33 C    0.976
    70   1 H    0.997 --    33 C    0.983
    71   1 H    0.994 --    33 C    0.980
    72   1 H    0.971 --     1 N    0.942
 ---------------------------------------------------------------------------

molecular dipole:
                 x           y           z       tot (Debye)
 q only:        0.985      -0.678      -0.950
   full:        1.383      -0.878      -1.224       5.197

           -------------------------------------------------
          | TOTAL ENERGY              -99.365442358771 Eh   |
          | GRADIENT NORM               0.004394554960 Eh/α |
          | HOMO-LUMO GAP               1.415601441708 eV   |
           -------------------------------------------------

 * finished run on 2024/04/06 at 11:17:00.838
