   * xtb version 6.6.1 (8d0f1dd) compiled by 'conda@1efc2f54142f' on 2023-08-01
          program call               : xtb xtbopt.xyz --opt crude --input .xc2 --gfn2

   ID    Z sym.   atoms
    1    6 C      1, 3, 5-7, 10, 11, 14
    2    7 N      2, 4, 9, 13
    3    8 O      8, 12
    4    1 H      15-25

          :  Hamiltonian                  GFN2-xTB          :
 * total energy  :   -40.2348179 Eh     change       -0.9464429E-11 Eh
 * total energy  :   -42.0644190 Eh     change       -0.1829601E+01 Eh
 * total energy  :   -42.0938592 Eh     change       -0.2944022E-01 Eh
 * total energy  :   -42.0969118 Eh     change       -0.3052607E-02 Eh
 * total energy  :   -42.1003009 Eh     change       -0.3389151E-02 Eh
 * total energy  :   -42.1014073 Eh     change       -0.1106332E-02 Eh
 * total energy  :   -42.1025003 Eh     change       -0.1093047E-02 Eh
 * total energy  :   -42.1035869 Eh     change       -0.1086578E-02 Eh
 * total energy  :   -42.1042011 Eh     change       -0.6141538E-03 Eh
 * total energy  :   -42.1046117 Eh     change       -0.4105987E-03 Eh
 * total energy  :   -42.1048198 Eh     change       -0.2081074E-03 Eh
   *** GEOMETRY OPTIMIZATION CONVERGED AFTER 11 ITERATIONS ***

 final structure:
================
25
 xtb: 6.6.1 (8d0f1dd)
C            2.65118194344726        1.33973003124997        0.03471566389335
N            2.06932945740910        0.02457931475378        0.00815342779336
C            2.71761492536161       -1.13194193416237       -0.13711073460040
N            1.82972123066477       -2.15710960058145       -0.12585782852154
C            0.57893329933249       -1.63331478972590        0.03137513321732
C            0.72385038270155       -0.24949969290673        0.11511524273615
C           -0.44540234263113        0.59612827658789        0.22598396340533
O           -0.42938410341090        1.83555113659069        0.27655107191203
N           -1.59658856624904       -0.13181481954906        0.24782479832424
C           -2.91667394704926        3.97505429113568       -0.17663841964921
C           -1.69754703831747       -1.39913338340687        0.19120559828588
O           -2.80805098420687        2.73037507044450        0.04618135060943
N           -0.62765254211768       -2.23928912027703        0.08103967146386
C           -0.78273852152959       -3.67384065254130       -0.00497713063449
H            3.35797620620580        1.42703626161827        0.85989335961427
H            3.17405026412961        1.54174948942578       -0.90064846561017
H            1.85045801199263        2.06680849102767        0.16644322264225
H            3.77656406595976       -1.23912305701601       -0.24749104195342
H           -1.84075259585223        2.38393888275091        0.21246739964001
H           -3.91585364196748        4.35405331182839       -0.35924612304546
H           -2.06795318487461        4.64643020939200       -0.21903570959509
H           -0.30490328065408       -4.16636259256630        0.84435204103053
H           -0.35527718477752       -4.05230102252220       -0.93524828199856
H           -1.84761077882861       -3.89580868362629        0.01110280492531
H            2.06714043936545       -3.13365687628755       -0.21497939594153

          :  Hamiltonian                  GFN2-xTB          :
         :: total energy             -42.104819765279 Eh    ::
         :: gradient norm              0.007562294931 Eh/a0 ::
         :: HOMO-LUMO gap              0.931047713045 eV    ::
         :: SCC energy               -42.617355931824 Eh    ::
         :: -> dispersion             -0.020810548007 Eh    ::
         :: repulsion energy           0.512551543041 Eh    ::

    * Orbital Energies and Occupations

         #    Occupation            Energy/Eh            Energy/eV
      -------------------------------------------------------------
         1        2.0000           -0.8878084             -24.1585
       ...           ...                  ...                  ...
        25        2.0000           -0.6662677             -18.1301
        26        2.0000           -0.6578908             -17.9021
        27        2.0000           -0.6438271             -17.5194
        28        2.0000           -0.6221570             -16.9298
        29        1.9999           -0.6137702             -16.7015
        30        1.9999           -0.6090643             -16.5735
        31        1.9999           -0.6010409             -16.3552
        32        1.9998           -0.5934848             -16.1495
        33        1.9993           -0.5765918             -15.6899
        34        1.9964           -0.5505799             -14.9820
        35        1.9917           -0.5373889             -14.6231
        36        1.9898           -0.5341049             -14.5337
        37        1.3774           -0.4632013             -12.6043 (HOMO)
        38        0.4063           -0.4289860             -11.6733 (LUMO)
        39        0.2125           -0.4169044             -11.3445
        40        0.0200           -0.3778951             -10.2830
        41        0.0073           -0.3617492              -9.8437
        42        0.0000           -0.2505935              -6.8190
        43                         -0.1772444              -4.8231
        44                         -0.1522920              -4.1441
        45                         -0.1141835              -3.1071
        46                         -0.0591996              -1.6109
        47                         -0.0372483              -1.0136
        48                         -0.0190934              -0.5196
       ...                                ...                  ...
        67                          0.5252091              14.2917
      -------------------------------------------------------------
                  HL-Gap            0.0342154 Eh            0.9310 eV

     #   Z          covCN         q      C6AA      α(0)
     1   6 C        3.691    -0.084    22.295     6.757
     2   7 N        2.827     0.059    20.217     6.678
     3   6 C        3.038     0.045    26.954     8.516
     4   7 N        2.787    -0.072    22.642     7.067
     5   6 C        3.068     0.110    25.513     8.282
     6   6 C        3.108    -0.011    28.148     8.692
     7   6 C        2.781     0.274    22.371     7.747
     8   8 O        0.872    -0.448    22.665     6.383
     9   7 N        1.847    -0.209    26.371     7.611
    10   6 C        2.706     0.098    25.810     8.315
    11   6 C        1.915     0.005    30.972     8.988
    12   8 O        1.641    -0.222    17.714     5.681
    13   7 N        2.741     0.008    21.119     6.825
    14   6 C        3.696    -0.070    22.027     6.714
    15   1 H        0.925     0.097     1.812     2.105
    16   1 H        0.924     0.096     1.820     2.110
    17   1 H        0.925     0.125     1.577     1.964
    18   1 H        0.927     0.111     1.690     2.033
    19   1 H        0.801     0.397     0.491     1.101
    20   1 H        0.925     0.119     1.623     1.992
    21   1 H        0.925     0.094     1.843     2.123
    22   1 H        0.924     0.077     2.013     2.219
    23   1 H        0.924     0.074     2.042     2.235
    24   1 H        0.925     0.111     1.687     2.031
    25   1 H        0.860     0.220     1.012     1.575

Wiberg/Mayer (AO) data.
largest (>0.10) Wiberg bond orders for each atom

     #   Z sym  total        # sym  WBO       # sym  WBO       # sym  WBO
 ---------------------------------------------------------------------------
     1   6 C    3.927 --     2 N    0.989    17 H    0.965    15 H    0.963
                            16 H    0.963
     2   7 N    3.624 --     3 C    1.357     6 C    1.145     1 C    0.989
     3   6 C    3.781 --     2 N    1.357     4 N    1.256    18 H    0.956
     4   7 N    3.552 --     3 C    1.256     5 C    1.180    25 H    0.923
     5   6 C    3.926 --     6 C    1.347    13 N    1.204     4 N    1.180
     6   6 C    3.899 --     5 C    1.347     2 N    1.145     7 C    1.099
     7   6 C    3.871 --     8 O    1.516     9 N    1.166     6 C    1.099
     8   8 O    2.004 --     7 C    1.516    19 H    0.149     9 N    0.111
     9   7 N    3.063 --    11 C    1.649     7 C    1.166     8 O    0.111
    10   6 C    3.439 --    12 O    1.517    21 H    0.962    20 H    0.957
    11   6 C    2.984 --     9 N    1.649    13 N    1.175
    12   8 O    2.264 --    10 C    1.517    19 H    0.667
    13   7 N    3.577 --     5 C    1.204    11 C    1.175    14 C    0.985
    14   6 C    3.944 --    13 N    0.985    24 H    0.973    23 H    0.972
                            22 H    0.971
    15   1 H    0.986 --     1 C    0.963
    16   1 H    0.986 --     1 C    0.963
    17   1 H    0.984 --     1 C    0.965
    18   1 H    0.987 --     3 C    0.956
    19   1 H    0.842 --    12 O    0.667     8 O    0.149
    20   1 H    0.985 --    10 C    0.957
    21   1 H    0.991 --    10 C    0.962
    22   1 H    0.991 --    14 C    0.971
    23   1 H    0.992 --    14 C    0.972
    24   1 H    0.986 --    14 C    0.973
    25   1 H    0.951 --     4 N    0.923
 ---------------------------------------------------------------------------

molecular dipole:
                 x           y           z       tot (Debye)
 q only:        1.548      -0.444      -0.332
   full:        2.419      -0.885      -0.402       6.626

           -------------------------------------------------
          | TOTAL ENERGY              -42.104819765279 Eh   |
          | GRADIENT NORM               0.007562294931 Eh/α |
          | HOMO-LUMO GAP               0.931047713045 eV   |
           -------------------------------------------------

 * finished run on 2024/06/05 at 20:00:14.969
