   * xtb version 6.6.1 (8d0f1dd) compiled by 'conda@1efc2f54142f' on 2023-08-01
          program call               : xtb struc.xyz --opt loose --input .xc1 --gfn2

   ID    Z sym.   atoms
    1    6 C      1, 3, 5-7, 10, 11, 14
    2    7 N      2, 4, 9, 13
    3    8 O      8, 12
    4    1 H      15-25
constraining bond 10 12 to    5.7600000 Å, actual value:    2.6513323 Å

          :  Hamiltonian                  GFN2-xTB          :
 * total energy  :   -24.9902318 Eh     change       -0.6633627E-10 Eh
 * total energy  :   -30.6336858 Eh     change       -0.5643454E+01 Eh
 * total energy  :   -35.0488961 Eh     change       -0.4415210E+01 Eh
 * total energy  :   -38.2753202 Eh     change       -0.3226424E+01 Eh
 * total energy  :   -40.3798678 Eh     change       -0.2104548E+01 Eh
 * total energy  :   -41.4040048 Eh     change       -0.1024137E+01 Eh
 * total energy  :   -41.6039446 Eh     change       -0.1999398E+00 Eh
 * total energy  :   -41.6209080 Eh     change       -0.1696346E-01 Eh
 * total energy  :   -41.6418470 Eh     change       -0.2093899E-01 Eh
 * total energy  :   -41.6765392 Eh     change       -0.3469219E-01 Eh
 * total energy  :   -42.1674774 Eh     change       -0.1036455E-02 Eh
 * total energy  :   -42.1684023 Eh     change       -0.9249003E-03 Eh
 * total energy  :   -42.1688887 Eh     change       -0.4863937E-03 Eh
 * total energy  :   -42.1692532 Eh     change       -0.3644821E-03 Eh
 * total energy  :   -42.1694709 Eh     change       -0.2177181E-03 Eh
 * total energy  :   -42.1695889 Eh     change       -0.1179427E-03 Eh
 * total energy  :   -42.1696197 Eh     change       -0.3080525E-04 Eh
 * total energy  :   -42.1696948 Eh     change       -0.7515821E-04 Eh
 * total energy  :   -42.1697169 Eh     change       -0.2207074E-04 Eh
   *** GEOMETRY OPTIMIZATION CONVERGED AFTER 76 ITERATIONS ***

 final structure:
================
25
 xtb: 6.6.1 (8d0f1dd)
C            3.24685171515978        0.99675901724531        0.18438294836968
N            2.20831887243724        0.00400290532407        0.08775004418071
C            2.35343797076200       -1.31200310024078        0.12175780309274
N            1.15650411749405       -1.91247348098610        0.00119977818816
C            0.21164739382062       -0.93546152609028       -0.11121667640501
C            0.87051971466798        0.27873059333768       -0.05373429099145
C            0.12942641303211        1.53009198143743       -0.08677147698685
O            0.59606607745022        2.64175271378512       -0.05097181498570
N           -1.25285371398772        1.27641538875750       -0.15065613588493
C           -2.08267222990018        2.46735004314373       -0.13143819206232
C           -1.89336531120320        0.10641973055370       -0.22267978070066
O           -1.25133986424719       -3.18033868070214        0.64207975716309
N           -1.13265480895576       -1.01825134684109       -0.22664637441608
C           -1.76021432921364       -2.33516481640190       -0.33454414757259
H            3.78962202190928        0.88700565135457        1.12305405381540
H            3.94968559455558        0.89187499210176       -0.64217877068194
H            2.78826330186682        1.98470039374673        0.14406489680097
H            3.28788703530900       -1.82888191612745        0.22687630949177
H           -1.94521271446200        2.99814835952145        0.81121750652815
H           -1.78614506858967        3.13466169845024       -0.94050627625837
H           -3.11980093151633        2.16866108263715       -0.24670246764135
H           -1.50521606184649       -2.76557347363879       -1.31118659800700
H           -2.84001677834818       -2.17781034069373       -0.28086841513744
H           -1.80813908115500       -3.17823384596502        1.42887893752309
H            0.94983217906171       -2.90414348210953        0.05001100047691

          :  Hamiltonian                  GFN2-xTB          :
         :: total energy             -42.169716908540 Eh    ::
         :: gradient norm              0.002144241683 Eh/a0 ::
         :: HOMO-LUMO gap              2.032842576855 eV    ::
         :: SCC energy               -42.677637265862 Eh    ::
         :: -> dispersion             -0.022507404921 Eh    ::
         :: repulsion energy           0.507796061680 Eh    ::

    * Orbital Energies and Occupations

         #    Occupation            Energy/Eh            Energy/eV
      -------------------------------------------------------------
         1        2.0000           -0.9117619             -24.8103
       ...           ...                  ...                  ...
        25        2.0000           -0.6623558             -18.0236
        26        2.0000           -0.6478542             -17.6290
        27        2.0000           -0.6415132             -17.4565
        28        2.0000           -0.6346626             -17.2700
        29        2.0000           -0.6330028             -17.2249
        30        2.0000           -0.6171503             -16.7935
        31        2.0000           -0.6092738             -16.5792
        32        2.0000           -0.5955251             -16.2051
        33        2.0000           -0.5870193             -15.9736
        34        2.0000           -0.5773585             -15.7107
        35        2.0000           -0.5653630             -15.3843
        36        1.9999           -0.5522418             -15.0273
        37        1.9822           -0.5078869             -13.8203 (HOMO)
        38        0.0176           -0.4331813             -11.7875 (LUMO)
        39        0.0003           -0.4006581             -10.9025
        40        0.0000           -0.3809969             -10.3675
        41                         -0.2820199              -7.6742
        42                         -0.1935281              -5.2662
        43                         -0.1775341              -4.8309
        44                         -0.1328238              -3.6143
        45                         -0.1222376              -3.3263
        46                         -0.0828128              -2.2535
        47                         -0.0619893              -1.6868
        48                         -0.0299166              -0.8141
       ...                                ...                  ...
        67                          0.5453073              14.8386
      -------------------------------------------------------------
                  HL-Gap            0.0747056 Eh            2.0328 eV

     #   Z          covCN         q      C6AA      α(0)
     1   6 C        3.691    -0.092    22.452     6.780
     2   7 N        2.842     0.081    19.838     6.615
     3   6 C        3.074     0.062    26.526     8.444
     4   7 N        2.798    -0.055    22.295     7.013
     5   6 C        3.071     0.118    25.347     8.255
     6   6 C        3.127    -0.013    28.140     8.686
     7   6 C        2.772     0.265    22.527     7.773
     8   8 O        0.857    -0.372    21.135     6.164
     9   7 N        2.752     0.001    21.247     6.846
    10   6 C        3.722    -0.069    21.941     6.690
    11   6 C        1.889    -0.111    34.208     9.446
    12   8 O        1.657    -0.427    21.380     6.242
    13   7 N        2.746    -0.016    21.557     6.896
    14   6 C        3.626     0.121    19.001     6.280
    15   1 H        0.925     0.106     1.733     2.059
    16   1 H        0.925     0.107     1.724     2.053
    17   1 H        0.925     0.136     1.490     1.909
    18   1 H        0.926     0.126     1.568     1.958
    19   1 H        0.924     0.092     1.862     2.134
    20   1 H        0.925     0.095     1.828     2.114
    21   1 H        0.925     0.101     1.777     2.085
    22   1 H        0.924     0.079     1.992     2.207
    23   1 H        0.924     0.092     1.862     2.134
    24   1 H        0.805     0.325     0.651     1.267
    25   1 H        0.860     0.250     0.885     1.473

Wiberg/Mayer (AO) data.
largest (>0.10) Wiberg bond orders for each atom

     #   Z sym  total        # sym  WBO       # sym  WBO       # sym  WBO
 ---------------------------------------------------------------------------
     1   6 C    3.916 --     2 N    0.983    17 H    0.962    15 H    0.961
                            16 H    0.959
     2   7 N    3.719 --     3 C    1.414     6 C    1.165     1 C    0.983
     3   6 C    3.930 --     2 N    1.414     4 N    1.310    18 H    0.951
     4   7 N    3.620 --     3 C    1.310     5 C    1.189    25 H    0.904
     5   6 C    3.963 --     6 C    1.373    13 N    1.191     4 N    1.189
     6   6 C    3.938 --     5 C    1.373     2 N    1.165     7 C    1.066
     7   6 C    3.963 --     8 O    1.713     9 N    1.072     6 C    1.066
     8   8 O    2.067 --     7 C    1.713     9 N    0.136
     9   7 N    3.672 --    11 C    1.386     7 C    1.072    10 C    0.982
                             8 O    0.136
    10   6 C    3.937 --     9 N    0.982    21 H    0.976    20 H    0.966
                            19 H    0.966
    11   6 C    2.863 --     9 N    1.386    13 N    1.245
    12   8 O    1.995 --    14 C    1.029    24 H    0.881
    13   7 N    3.622 --    11 C    1.245     5 C    1.191    14 C    0.946
    14   6 C    3.929 --    12 O    1.029    23 H    0.962    22 H    0.955
                            13 N    0.946
    15   1 H    0.988 --     1 C    0.961
    16   1 H    0.988 --     1 C    0.959
    17   1 H    0.981 --     1 C    0.962
    18   1 H    0.983 --     3 C    0.951
    19   1 H    0.991 --    10 C    0.966
    20   1 H    0.990 --    10 C    0.966
    21   1 H    0.989 --    10 C    0.976
    22   1 H    0.992 --    14 C    0.955
    23   1 H    0.991 --    14 C    0.962
    24   1 H    0.894 --    12 O    0.881
    25   1 H    0.937 --     4 N    0.904
 ---------------------------------------------------------------------------

molecular dipole:
                 x           y           z       tot (Debye)
 q only:        1.330      -1.895       0.207
   full:        1.770      -2.319       0.318       7.459

           -------------------------------------------------
          | TOTAL ENERGY              -42.169716908540 Eh   |
          | GRADIENT NORM               0.002144241683 Eh/α |
          | HOMO-LUMO GAP               2.032842576855 eV   |
           -------------------------------------------------

 * finished run on 2024/06/05 at 19:58:06.695
