   * xtb version 6.6.1 (8d0f1dd) compiled by 'conda@1efc2f54142f' on 2023-08-01
          program call               : xtb xtbopt.xyz --opt crude --input .xc2 --gfn2

   ID    Z sym.   atoms
    1    6 C      1, 3, 5-7, 10, 11, 14
    2    7 N      2, 4, 9, 13
    3    8 O      8, 12
    4    1 H      15-25
########################################################################
[WARNING] Please study the warnings concerning your input carefully
-1- readin_getIntValue: could not parse ''
########################################################################

          :  Hamiltonian                  GFN2-xTB          :
 * total energy  :   -42.1697178 Eh     change        0.8526513E-13 Eh
 * total energy  :   -42.1697645 Eh     change       -0.4669123E-04 Eh
   *** GEOMETRY OPTIMIZATION CONVERGED AFTER 2 ITERATIONS ***

 final structure:
================
25
 xtb: 6.6.1 (8d0f1dd)
C            3.24602807497130        0.99759222345284        0.18395802697971
N            2.20761724676188        0.00436560252443        0.08881852175468
C            2.35350662458969       -1.31150971583128        0.12149137696370
N            1.15661208483671       -1.91262899219309        0.00236935794761
C            0.21096675483967       -0.93607202512139       -0.10732936127915
C            0.86939295700051        0.27848349799821       -0.05063364025183
C            0.12854276771928        1.53012081552713       -0.08451445077890
O            0.59581873358064        2.64158161877194       -0.05009765052197
N           -1.25385246714774        1.27751050543970       -0.14914395626461
C           -2.08146798409319        2.47161365199054       -0.13403412581864
C           -1.89383918546196        0.10644579144520       -0.21959293325113
O           -1.25392929827006       -3.19216008717749        0.63766997061399
N           -1.13306328038770       -1.01910499957319       -0.22196382991860
C           -1.76061870665153       -2.33723867978281       -0.33376630038855
H            3.79065591421486        0.88773058118365        1.12164008928361
H            3.94745107207679        0.89345155906436       -0.64394408737543
H            2.78704941197093        1.98531718038985        0.14494673583840
H            3.28857140816441       -1.82766783357363        0.22476811859828
H           -1.94241205496168        3.00421045248728        0.80704416664829
H           -1.78339285562627        3.13564555996417       -0.94508244245286
H           -3.11916991753870        2.17466381384043       -0.24789583257207
H           -1.50566223066724       -2.76330215728451       -1.31281543800735
H           -2.84025960305310       -2.17875958417168       -0.27907576312873
H           -1.80593804221610       -3.18745238653514        1.42812890293276
H            0.95182408944961       -2.90459785123587        0.05022616234777

          :  Hamiltonian                  GFN2-xTB          :
         :: total energy             -42.169764513284 Eh    ::
         :: gradient norm              0.001645140077 Eh/a0 ::
         :: HOMO-LUMO gap              2.031837566217 eV    ::
         :: SCC energy               -42.677081172427 Eh    ::
         :: -> dispersion             -0.022496307921 Eh    ::
         :: repulsion energy           0.507193894533 Eh    ::

    * Orbital Energies and Occupations

         #    Occupation            Energy/Eh            Energy/eV
      -------------------------------------------------------------
         1        2.0000           -0.9118201             -24.8119
       ...           ...                  ...                  ...
        25        2.0000           -0.6624127             -18.0252
        26        2.0000           -0.6479506             -17.6316
        27        2.0000           -0.6415344             -17.4570
        28        2.0000           -0.6346333             -17.2693
        29        2.0000           -0.6330185             -17.2253
        30        2.0000           -0.6171929             -16.7947
        31        2.0000           -0.6092311             -16.5780
        32        2.0000           -0.5954933             -16.2042
        33        2.0000           -0.5871900             -15.9783
        34        2.0000           -0.5774185             -15.7124
        35        2.0000           -0.5654071             -15.3855
        36        1.9999           -0.5523693             -15.0307
        37        1.9821           -0.5079109             -13.8210 (HOMO)
        38        0.0176           -0.4332422             -11.7891 (LUMO)
        39        0.0003           -0.4007313             -10.9045
        40        0.0000           -0.3811827             -10.3725
        41                         -0.2821274              -7.6771
        42                         -0.1936945              -5.2707
        43                         -0.1782809              -4.8513
        44                         -0.1338982              -3.6436
        45                         -0.1227145              -3.3392
        46                         -0.0837296              -2.2784
        47                         -0.0627687              -1.7080
        48                         -0.0299639              -0.8154
       ...                                ...                  ...
        67                          0.5449326              14.8284
      -------------------------------------------------------------
                  HL-Gap            0.0746687 Eh            2.0318 eV

     #   Z          covCN         q      C6AA      α(0)
     1   6 C        3.691    -0.092    22.452     6.780
     2   7 N        2.841     0.081    19.838     6.615
     3   6 C        3.074     0.062    26.527     8.445
     4   7 N        2.798    -0.055    22.298     7.013
     5   6 C        3.071     0.118    25.345     8.255
     6   6 C        3.127    -0.013    28.142     8.686
     7   6 C        2.772     0.265    22.526     7.773
     8   8 O        0.857    -0.372    21.137     6.164
     9   7 N        2.751     0.001    21.251     6.847
    10   6 C        3.721    -0.069    21.943     6.690
    11   6 C        1.888    -0.111    34.203     9.446
    12   8 O        1.657    -0.427    21.375     6.241
    13   7 N        2.745    -0.016    21.563     6.897
    14   6 C        3.625     0.120    19.011     6.282
    15   1 H        0.925     0.106     1.733     2.059
    16   1 H        0.925     0.107     1.724     2.053
    17   1 H        0.925     0.136     1.490     1.909
    18   1 H        0.926     0.126     1.568     1.958
    19   1 H        0.924     0.092     1.860     2.133
    20   1 H        0.925     0.095     1.827     2.114
    21   1 H        0.925     0.101     1.778     2.085
    22   1 H        0.924     0.079     1.987     2.204
    23   1 H        0.924     0.092     1.859     2.132
    24   1 H        0.805     0.324     0.652     1.268
    25   1 H        0.860     0.250     0.885     1.474

Wiberg/Mayer (AO) data.
largest (>0.10) Wiberg bond orders for each atom

     #   Z sym  total        # sym  WBO       # sym  WBO       # sym  WBO
 ---------------------------------------------------------------------------
     1   6 C    3.916 --     2 N    0.983    17 H    0.962    15 H    0.961
                            16 H    0.959
     2   7 N    3.719 --     3 C    1.414     6 C    1.165     1 C    0.983
     3   6 C    3.930 --     2 N    1.414     4 N    1.310    18 H    0.951
     4   7 N    3.620 --     3 C    1.310     5 C    1.189    25 H    0.905
     5   6 C    3.963 --     6 C    1.373    13 N    1.191     4 N    1.189
     6   6 C    3.938 --     5 C    1.373     2 N    1.165     7 C    1.066
     7   6 C    3.963 --     8 O    1.713     9 N    1.072     6 C    1.066
     8   8 O    2.067 --     7 C    1.713     9 N    0.136
     9   7 N    3.672 --    11 C    1.387     7 C    1.072    10 C    0.981
                             8 O    0.136
    10   6 C    3.937 --     9 N    0.981    21 H    0.976    20 H    0.966
                            19 H    0.966
    11   6 C    2.862 --     9 N    1.387    13 N    1.244
    12   8 O    1.995 --    14 C    1.030    24 H    0.881
    13   7 N    3.622 --    11 C    1.244     5 C    1.191    14 C    0.945
    14   6 C    3.929 --    12 O    1.030    23 H    0.962    22 H    0.956
                            13 N    0.945
    15   1 H    0.988 --     1 C    0.961
    16   1 H    0.988 --     1 C    0.959
    17   1 H    0.981 --     1 C    0.962
    18   1 H    0.983 --     3 C    0.951
    19   1 H    0.991 --    10 C    0.966
    20   1 H    0.990 --    10 C    0.966
    21   1 H    0.989 --    10 C    0.976
    22   1 H    0.992 --    14 C    0.956
    23   1 H    0.991 --    14 C    0.962
    24   1 H    0.895 --    12 O    0.881
    25   1 H    0.937 --     4 N    0.905
 ---------------------------------------------------------------------------

molecular dipole:
                 x           y           z       tot (Debye)
 q only:        1.332      -1.887       0.207
   full:        1.775      -2.309       0.321       7.448

           -------------------------------------------------
          | TOTAL ENERGY              -42.169764513284 Eh   |
          | GRADIENT NORM               0.001645140077 Eh/α |
          | HOMO-LUMO GAP               2.031837566217 eV   |
           -------------------------------------------------

 * finished run on 2024/06/05 at 19:58:06.861
