   * xtb version 6.6.1 (8d0f1dd) compiled by 'conda@1efc2f54142f' on 2023-08-01
          program call               : xtb struc.xyz --opt loose --input .xc1 --gfn2

   ID    Z sym.   atoms
    1    7 N      1, 17
    2    6 C      2-6, 8, 9, 11-16, 18-23, 25, 26, 28-33
    3    8 O      7, 10, 24, 27
    4    1 H      34-72
constraining bond 1 69 to    5.6866700 Å, actual value:    2.4418859 Å

          :  Hamiltonian                  GFN2-xTB          :
 * total energy  :  -101.2840505 Eh     change       -0.4035485E-08 Eh
 * total energy  :  -102.1559293 Eh     change       -0.8718788E+00 Eh
 * total energy  :  -103.1316563 Eh     change       -0.9757270E+00 Eh
 * total energy  :  -100.9780479 Eh     change        0.2153608E+01 Eh
 * total energy  :  -103.4545835 Eh     change       -0.2476536E+01 Eh
 * total energy  :  -103.5063818 Eh     change       -0.5179824E-01 Eh
 * total energy  :  -103.5594624 Eh     change       -0.5308066E-01 Eh
 * total energy  :  -103.5761701 Eh     change       -0.1670768E-01 Eh
 * total energy  :  -103.5850062 Eh     change       -0.8836148E-02 Eh
 * total energy  :  -103.5878361 Eh     change       -0.2829895E-02 Eh
 * total energy  :  -103.6976700 Eh     change       -0.1541072E-03 Eh
 * total energy  :  -103.6977896 Eh     change       -0.1195861E-03 Eh
 * total energy  :  -103.6979317 Eh     change       -0.1420581E-03 Eh
 * total energy  :  -103.6980500 Eh     change       -0.1183412E-03 Eh
 * total energy  :  -103.6981397 Eh     change       -0.8965221E-04 Eh
 * total energy  :  -103.6982247 Eh     change       -0.8504949E-04 Eh
 * total energy  :  -103.6982493 Eh     change       -0.2453293E-04 Eh
 * total energy  :  -103.6982630 Eh     change       -0.1377312E-04 Eh
 * total energy  :  -103.6982950 Eh     change       -0.3200187E-04 Eh
   *** GEOMETRY OPTIMIZATION CONVERGED AFTER 124 ITERATIONS ***

 final structure:
================
72
 xtb: 6.6.1 (8d0f1dd)
N           -1.61848770739790        2.64815373210871        1.49279125808926
C           -1.57139360764929        1.26003089595398        0.89400565199382
C           -2.75928833042814        1.15103447865125       -0.09045449534873
C           -3.67586019266470       -0.04366745598347        0.12151714406088
C           -4.70685226210345       -0.22433554022279       -0.81156374854066
C           -5.58546895733500       -1.28841855231471       -0.72823709787024
O           -6.59976135273032       -1.53612984831619       -1.58935614669823
C           -6.78078197019900       -0.68721916793440       -2.69639240937225
C           -5.45046772594381       -2.22273134105403        0.33059071083109
O           -6.33886748597515       -3.23850668481608        0.33100769694182
C           -6.24762666515778       -4.21720235716201        1.33970148286395
C           -4.44640749843166       -2.02732871200714        1.26101238245263
C           -3.57159211745125       -0.95048674196904        1.15906971057899
C           -2.06979274163428        1.04660773970793       -1.47416075468596
C           -0.74184615709467        0.35880597124523       -1.18926504408846
C           -0.25895176715511        1.04900071517776        0.09987805287677
N            0.72678085844110        0.40326083010958        0.93674338815216
C            2.10270550516198        0.80516650017957        0.69831508683677
C            2.66094691717301        0.53747325699522       -0.71376132207433
C            4.16153529801082        0.59634418905900       -0.68386231521572
C            4.84325401182172        1.77156078576748       -0.93516479601972
C            6.22842652369581        1.82084127488397       -0.84670864293435
C            6.95387489851454        0.69338400234836       -0.50117483789636
O            8.30116264529129        0.62948926732769       -0.37711463650622
C            9.05529555372234        1.79830418735285       -0.58959260312473
C            6.26423904156875       -0.51896063689558       -0.24899731610073
O            7.04871830970524       -1.57734736610893        0.07287488160994
C            6.44094102852905       -2.82367202235262        0.30333410832021
C            4.88428080668476       -0.54536344141558       -0.33989141063011
C            0.57670326934130       -1.03127919541331        1.10464100471746
C           -3.51478063803841        2.49859376231024        0.07467321759189
C           -4.63009333170480        2.44647618328675        1.11538770677451
C           -2.40485692568086        3.45490011728146        0.50978456568338
H           -4.81915171178889        0.49114971688499       -1.61008848170506
H           -7.01861660175229        0.33606200285557       -2.38699068510019
H           -7.62457595130614       -1.09996665734411       -3.24538890066342
H           -5.89837699755009       -0.67808934902539       -3.34498292770575
H           -6.41229713765852       -3.78721930111934        2.33235681155977
H           -7.03659105685900       -4.93447687111910        1.12324620924259
H           -5.27958624612922       -4.72722791091533        1.31766509468255
H           -4.32316011335813       -2.71204658007164        2.08343200196570
H           -2.81875041430468       -0.87148005914064        1.92715372191412
H           -2.66753609669140        0.47848148309484       -2.18149978407401
H           -1.89600711045471        2.03779268937050       -1.89718902668013
H           -0.91072178317307       -0.70038291456169       -1.00742332834300
H           -0.03206686947134        0.46725337034871       -2.00528573609684
H           -1.60694765862387        0.54208029364082        1.70906361988958
H            0.15081269238962        2.02914954205915       -0.17166706219748
H            2.71665800599727        0.27039744856181        1.42498915474847
H            2.18993749344397        1.87372979090722        0.92103589922654
H            2.27143093910865        1.27794906251043       -1.41488128781658
H            2.34132380251529       -0.45182055110608       -1.04491685403887
H            4.30180731210052        2.66443000526526       -1.21032367152422
H            6.73214162084231        2.75109640223314       -1.05350517878562
H            8.77266663594400        2.59128363719163        0.11022924315911
H            8.95098047071827        2.16366556243567       -1.61601003493323
H           10.09057766974018        1.51372918355286       -0.41211940807317
H            7.25581275577805       -3.51111334722121        0.52104358110229
H            5.76016775975515       -2.78852406975086        1.16067601501865
H            5.89716179157168       -3.17644005172383       -0.57920357292986
H            4.34596332657897       -1.46121061183395       -0.15045435367559
H            0.95927836508878       -1.61225702322095        0.25910811072410
H           -0.47046842453764       -1.28778070009971        1.24560845109959
H            1.12606140564641       -1.32516492743201        1.99800802919990
H           -3.94062161779042        2.81644843744226       -0.87724836744768
H           -4.28643956161116        2.04551082318956        2.06645254293733
H           -5.43202395208808        1.80271217064227        0.76988331500863
H           -5.04102345150981        3.43934454180738        1.27708598936701
H           -0.97713672922704        2.89000291178311        1.62274314761860
H           -1.74851980504843        3.71252479111668       -0.32379857317984
H           -2.77776836798594        4.37019499395316        0.96952601981492
H           -2.21356602410732        2.58757276156832        2.33530464604897

          :  Hamiltonian                  GFN2-xTB          :
         :: total energy            -103.698295043339 Eh    ::
         :: gradient norm              0.002797368750 Eh/a0 ::
         :: HOMO-LUMO gap              3.237026158979 eV    ::
         :: SCC energy              -100.805123190083 Eh    ::
         :: -> dispersion             -0.076321226382 Eh    ::
         :: repulsion energy           1.550209371722 Eh    ::

    * Orbital Energies and Occupations

         #    Occupation            Energy/Eh            Energy/eV
      -------------------------------------------------------------
         1        2.0000           -0.8707855             -23.6953
       ...           ...                  ...                  ...
        78        1.9999           -0.5253195             -14.2947
        79        1.9999           -0.5216932             -14.1960
        80        1.9998           -0.5179038             -14.0929
        81        1.9998           -0.5133538             -13.9691
        82        1.9998           -0.5129631             -13.9584
        83        1.9997           -0.5065880             -13.7850
        84        1.9995           -0.5006124             -13.6224
        85        1.9991           -0.4917958             -13.3824
        86        1.9981           -0.4793433             -13.0436
        87        1.9950           -0.4638321             -12.6215
        88        1.9913           -0.4550919             -12.3837
        89        1.9869           -0.4486171             -12.2075
        90        1.9474           -0.4262994             -11.6002 (HOMO)
        91        0.0396           -0.3073409              -8.3632 (LUMO)
        92        0.0301           -0.3029075              -8.2425
        93        0.0081           -0.2818808              -7.6704
        94        0.0065           -0.2784825              -7.5779
        95        0.0001           -0.2107451              -5.7347
        96        0.0000           -0.1877123              -5.1079
        97        0.0000           -0.1744994              -4.7484
        98        0.0000           -0.1558269              -4.2403
        99        0.0000           -0.1323035              -3.6002
       100        0.0000           -0.1093573              -2.9758
       101                         -0.0896832              -2.4404
       ...                                ...                  ...
       171                          1.0824021              29.4537
      -------------------------------------------------------------
                  HL-Gap            0.1189585 Eh            3.2370 eV

     #   Z          covCN         q      C6AA      α(0)
     1   7 N        3.540    -0.059    22.366     7.024
     2   6 C        3.832    -0.004    20.629     6.462
     3   6 C        3.932     0.004    20.444     6.426
     4   6 C        2.966    -0.019    28.478     8.753
     5   6 C        2.924    -0.088    30.201     9.012
     6   6 C        2.862     0.126    25.234     8.234
     7   8 O        1.706    -0.240    17.982     5.725
     8   6 C        3.644     0.031    20.393     6.491
     9   6 C        2.865     0.128    25.199     8.228
    10   8 O        1.706    -0.237    17.931     5.717
    11   6 C        3.646     0.029    20.412     6.492
    12   6 C        2.915    -0.077    29.915     8.969
    13   6 C        2.921    -0.062    29.531     8.911
    14   6 C        3.830    -0.075    21.904     6.659
    15   6 C        3.823    -0.074    21.896     6.659
    16   6 C        3.815     0.034    19.985     6.363
    17   7 N        2.726    -0.184    24.991     7.425
    18   6 C        3.755    -0.001    20.646     6.479
    19   6 C        3.806    -0.068    21.794     6.646
    20   6 C        2.970    -0.007    28.184     8.708
    21   6 C        2.922    -0.054    29.347     8.884
    22   6 C        2.915    -0.072    29.796     8.951
    23   6 C        2.866     0.126    25.236     8.234
    24   8 O        1.706    -0.242    18.005     5.729
    25   6 C        3.646     0.032    20.373     6.487
    26   6 C        2.864     0.126    25.228     8.233
    27   8 O        1.706    -0.243    18.020     5.731
    28   6 C        3.645     0.034    20.342     6.482
    29   6 C        2.922    -0.082    30.059     8.991
    30   6 C        3.701    -0.043    21.498     6.630
    31   6 C        3.867    -0.031    21.075     6.528
    32   6 C        3.754    -0.126    22.975     6.835
    33   6 C        3.768    -0.033    21.204     6.563
    34   1 H        0.926     0.039     2.460     2.453
    35   1 H        0.924     0.042     2.422     2.434
    36   1 H        0.925     0.077     2.007     2.215
    37   1 H        0.924     0.044     2.401     2.423
    38   1 H        0.924     0.047     2.358     2.401
    39   1 H        0.925     0.077     2.014     2.219
    40   1 H        0.924     0.047     2.355     2.400
    41   1 H        0.926     0.048     2.345     2.394
    42   1 H        0.926     0.020     2.739     2.588
    43   1 H        0.925     0.068     2.110     2.272
    44   1 H        0.924     0.040     2.448     2.447
    45   1 H        0.925     0.059     2.205     2.322
    46   1 H        0.925     0.058     2.221     2.331
    47   1 H        0.925     0.093     1.853     2.129
    48   1 H        0.924     0.042     2.425     2.435
    49   1 H        0.924     0.054     2.275     2.359
    50   1 H        0.924     0.029     2.607     2.525
    51   1 H        0.924     0.030     2.583     2.513
    52   1 H        0.924     0.041     2.436     2.441
    53   1 H        0.926     0.030     2.580     2.512
    54   1 H        0.926     0.046     2.367     2.406
    55   1 H        0.924     0.045     2.389     2.417
    56   1 H        0.924     0.047     2.364     2.404
    57   1 H        0.925     0.073     2.053     2.241
    58   1 H        0.925     0.073     2.057     2.243
    59   1 H        0.924     0.041     2.440     2.443
    60   1 H        0.924     0.044     2.396     2.421
    61   1 H        0.926     0.039     2.466     2.456
    62   1 H        0.924     0.035     2.521     2.483
    63   1 H        0.925     0.042     2.424     2.435
    64   1 H        0.925     0.053     2.278     2.360
    65   1 H        0.925     0.078     2.003     2.213
    66   1 H        0.925     0.039     2.456     2.451
    67   1 H        0.925     0.076     2.020     2.222
    68   1 H        0.925     0.058     2.222     2.331
    69   1 H        0.863     0.251     0.878     1.468
    70   1 H        0.924     0.093     1.853     2.129
    71   1 H        0.925     0.091     1.865     2.136
    72   1 H        0.859     0.242     0.917     1.500

Wiberg/Mayer (AO) data.
largest (>0.10) Wiberg bond orders for each atom

     #   Z sym  total        # sym  WBO       # sym  WBO       # sym  WBO
 ---------------------------------------------------------------------------
     1   7 N    3.704 --    33 C    0.928    69 H    0.919    72 H    0.909
                             2 C    0.892
     2   6 C    3.891 --     3 C    0.971    16 C    0.967    47 H    0.948
                             1 N    0.892
     3   6 C    3.977 --     4 C    0.983    14 C    0.971     2 C    0.971
                            31 C    0.956
     4   6 C    3.949 --    13 C    1.439     5 C    1.342     3 C    0.983
     5   6 C    3.956 --     6 C    1.415     4 C    1.342    34 H    0.961
     6   6 C    3.920 --     5 C    1.415     9 C    1.230     7 O    1.085
     7   8 O    2.261 --     6 C    1.085     8 C    0.982
     8   6 C    3.940 --     7 O    0.982    36 H    0.977    37 H    0.976
                            35 H    0.975
     9   6 C    3.916 --    12 C    1.402     6 C    1.230    10 O    1.094
    10   8 O    2.266 --     9 C    1.094    11 C    0.979
    11   6 C    3.937 --    10 O    0.979    39 H    0.978    40 H    0.976
                            38 H    0.975
    12   6 C    3.961 --     9 C    1.402    13 C    1.385    41 H    0.965
    13   6 C    3.964 --     4 C    1.439    12 C    1.385    42 H    0.957
    14   6 C    3.989 --    15 C    1.009    44 H    0.974     3 C    0.971
                            43 H    0.971
    15   6 C    3.991 --    14 C    1.009    46 H    0.974    45 H    0.973
                            16 C    0.972
    16   6 C    3.983 --    17 N    1.014    15 C    0.972     2 C    0.967
                            48 H    0.958
    17   7 N    3.149 --    16 C    1.014    30 C    1.009    18 C    0.998
    18   6 C    3.975 --    17 N    0.998    19 C    0.975    50 H    0.973
                            49 H    0.970
    19   6 C    3.995 --    20 C    1.009    18 C    0.975    51 H    0.975
                            52 H    0.969
    20   6 C    3.968 --    21 C    1.431    29 C    1.370    19 C    1.009
    21   6 C    3.971 --    20 C    1.431    22 C    1.402    53 H    0.970
    22   6 C    3.972 --    23 C    1.402    21 C    1.402    54 H    0.965
    23   6 C    3.918 --    22 C    1.402    26 C    1.241    24 O    1.083
    24   8 O    2.248 --    23 C    1.083    25 C    0.982
    25   6 C    3.939 --    24 O    0.982    57 H    0.978    55 H    0.975
                            56 H    0.975
    26   6 C    3.921 --    29 C    1.410    23 C    1.241    27 O    1.080
    27   8 O    2.249 --    26 C    1.080    28 C    0.985
    28   6 C    3.942 --    27 O    0.985    58 H    0.978    59 H    0.975
                            60 H    0.975
    29   6 C    3.970 --    26 C    1.410    20 C    1.370    61 H    0.963
    30   6 C    3.980 --    17 N    1.009    64 H    0.980    63 H    0.977
                            62 H    0.972
    31   6 C    3.980 --    32 C    1.011    33 C    0.996    65 H    0.960
                             3 C    0.956
    32   6 C    3.989 --    31 C    1.011    68 H    0.982    66 H    0.981
                            67 H    0.977
    33   6 C    3.911 --    31 C    0.996    71 H    0.968    70 H    0.967
                             1 N    0.928
    34   1 H    0.998 --     5 C    0.961
    35   1 H    0.998 --     8 C    0.975
    36   1 H    0.994 --     8 C    0.977
    37   1 H    0.997 --     8 C    0.976
    38   1 H    0.997 --    11 C    0.975
    39   1 H    0.994 --    11 C    0.978
    40   1 H    0.997 --    11 C    0.976
    41   1 H    0.997 --    12 C    0.965
    42   1 H    0.999 --    13 C    0.957
    43   1 H    0.995 --    14 C    0.971
    44   1 H    0.998 --    14 C    0.974
    45   1 H    0.996 --    15 C    0.973
    46   1 H    0.996 --    15 C    0.974
    47   1 H    0.991 --     2 C    0.948
    48   1 H    0.998 --    16 C    0.958
    49   1 H    0.997 --    18 C    0.970
    50   1 H    0.999 --    18 C    0.973
    51   1 H    0.998 --    19 C    0.975
    52   1 H    0.997 --    19 C    0.969
    53   1 H    0.999 --    21 C    0.970
    54   1 H    0.997 --    22 C    0.965
    55   1 H    0.996 --    25 C    0.975
    56   1 H    0.996 --    25 C    0.975
    57   1 H    0.994 --    25 C    0.978
    58   1 H    0.994 --    28 C    0.978
    59   1 H    0.997 --    28 C    0.975
    60   1 H    0.997 --    28 C    0.975
    61   1 H    0.998 --    29 C    0.963
    62   1 H    0.998 --    30 C    0.972
    63   1 H    0.998 --    30 C    0.977
    64   1 H    0.997 --    30 C    0.980
    65   1 H    0.994 --    31 C    0.960
    66   1 H    0.998 --    32 C    0.981
    67   1 H    0.994 --    32 C    0.977
    68   1 H    0.996 --    32 C    0.982
    69   1 H    0.937 --     1 N    0.919
    70   1 H    0.991 --    33 C    0.967
    71   1 H    0.991 --    33 C    0.968
    72   1 H    0.941 --     1 N    0.909
 ---------------------------------------------------------------------------

molecular dipole:
                 x           y           z       tot (Debye)
 q only:       -2.873       3.503       1.550
   full:       -2.661       3.767       1.660      12.459

           -------------------------------------------------
          | TOTAL ENERGY             -103.698295043339 Eh   |
          | GRADIENT NORM               0.002797368750 Eh/α |
          | HOMO-LUMO GAP               3.237026158979 eV   |
           -------------------------------------------------

 * finished run on 2024/04/06 at 11:15:40.008
