   * xtb version 6.6.1 (8d0f1dd) compiled by 'conda@1efc2f54142f' on 2023-08-01
          program call               : xtb xtbopt.xyz --opt crude --input .xc2 --gfn2

   ID    Z sym.   atoms
    1    7 N      1, 17
    2    6 C      2-6, 8, 9, 11-16, 18-23, 25, 26, 28-33
    3    8 O      7, 10, 24, 27
    4    1 H      34-72
########################################################################
[WARNING] Please study the warnings concerning your input carefully
-1- readin_getIntValue: could not parse ''
########################################################################

          :  Hamiltonian                  GFN2-xTB          :
 * total energy  :   -99.2540410 Eh     change       -0.9237056E-12 Eh
 * total energy  :   -99.4384382 Eh     change       -0.1843972E+00 Eh
 * total energy  :   -99.4409181 Eh     change       -0.2479918E-02 Eh
 * total energy  :   -99.4412163 Eh     change       -0.2982226E-03 Eh
   *** GEOMETRY OPTIMIZATION CONVERGED AFTER 4 ITERATIONS ***

 final structure:
================
72
 xtb: 6.6.1 (8d0f1dd)
N           -1.65399869830794        2.63082129731316        1.48584961571111
C           -1.58032396424320        1.25813495560486        0.89540093555968
C           -2.76586386781029        1.14384380572262       -0.09437516322975
C           -3.68170698595976       -0.04916461671623        0.11589557014507
C           -4.71344383274784       -0.22919610152199       -0.81606092427865
C           -5.59259801847547       -1.29224642310446       -0.73165896329642
O           -6.60698652870372       -1.53743320164900       -1.59284882046564
C           -6.78552294283081       -0.68674387410771       -2.69831231554822
C           -5.45725540427280       -2.22655449381029        0.32727848061458
O           -6.34678478590846       -3.24210455409462        0.32900768954767
C           -6.25412969551824       -4.21970412678097        1.33836162467827
C           -4.45184626820346       -2.03158571380539        1.25681849981114
C           -3.57645889287173       -0.95509840123884        1.15386632374995
C           -2.07283055886371        1.04171769841922       -1.47587781450300
C           -0.74349054424468        0.35856997080089       -1.18753520859003
C           -0.26635685894260        1.05099621297329        0.10178383807912
N            0.72165975495831        0.40824983820776        0.93823996462376
C            2.09876927294612        0.80907170864714        0.69876076131843
C            2.65968009392744        0.53758338585171       -0.71168827058954
C            4.16053598568855        0.59686393623734       -0.68018874810924
C            4.84150045835111        1.77219061795404       -0.93214997245981
C            6.22667632588417        1.82194904540630       -0.84458095511116
C            6.95312274487207        0.69475360541649       -0.49962031852756
O            8.30062032408932        0.63171672877806       -0.37611508895380
C            9.05495303086487        1.79948190967435       -0.59194639281208
C            6.26399409631368       -0.51783033885827       -0.24714468689109
O            7.04907607748695       -1.57581572678544        0.07344349900571
C            6.44290982311162       -2.82290165965097        0.30401361396604
C            4.88409390784940       -0.54464200226737       -0.33683177565021
C            0.57440018393104       -1.02704270977366        1.10612010126242
C           -3.52372329217979        2.49256391218119        0.06989539316079
C           -4.64171306060583        2.43849134169821        1.10883499770417
C           -2.41365072476612        3.44802220918349        0.51194348859314
H           -4.82466347463810        0.48625523765821       -1.61456628607834
H           -7.02244519478469        0.33634941601464       -2.38736978944841
H           -7.62943228562346       -1.09736661374106       -3.24890546396776
H           -5.90277770254319       -0.67732162698665       -3.34619644154934
H           -6.41634185849381       -3.78865839188237        2.33140486219583
H           -7.04395272955913       -4.93677665783420        1.12414905240210
H           -5.28593086055314       -4.72983770156541        1.31525977928126
H           -4.32761800387143       -2.71679729511055        2.07885525268661
H           -2.82273800386934       -0.87571321038672        1.92150066845183
H           -2.66593113902138        0.47183909209337       -2.18509019655788
H           -1.90064467996388        2.03346984371768       -1.89768981576626
H           -0.91061526927357       -0.70110048879777       -1.00465778495764
H           -0.03179939761660        0.46684238850919       -2.00201658827396
H           -1.61184968514366        0.53505536312392        1.70644401350163
H            0.13897916624017        2.03344866770789       -0.16922648751577
H            2.71150341582953        0.27496367421489        1.42726056909715
H            2.18824458490963        1.87808355950070        0.91877362686189
H            2.27089818533986        1.27573677092971       -1.41555606483279
H            2.34108812606522       -0.45267954366914       -1.04047411280768
H            4.29997745759080        2.66516650613710       -1.20753848741534
H            6.72989762689339        2.75231387453458       -1.05164009734600
H            8.77550279635431        2.59364368589599        0.10810605069024
H            8.94816553413469        2.16428420344868       -1.61856062313010
H           10.09087467801438        1.51452421088182       -0.41762606089366
H            7.25883892358251       -3.50988974474835        0.52061237714744
H            5.76312773611302       -2.78902733800161        1.16238240393947
H            5.89855298837935       -3.17574052744490       -0.57825013882839
H            4.34697130011285       -1.46099420204135       -0.14691880199927
H            0.95629908487866       -1.60727538338312        0.25936779681103
H           -0.47245159320476       -1.28541167848399        1.24776647201624
H            1.12569295024185       -1.32109236746272        1.99856307498363
H           -3.94927537234947        2.80766044064932       -0.88279657940350
H           -4.29785064629809        2.03650409012538        2.05959230137510
H           -5.44622966707440        1.79722137591602        0.76317888196944
H           -5.05032713079968        3.43300788169439        1.27171583921586
H           -0.71022752846572        2.98479338833546        1.65923544878720
H           -1.75664033442992        3.70225563059396       -0.32017214781580
H           -2.78748563816214        4.36560607012450        0.96559317965520
H           -2.17417791668070        2.60383868633818        2.36817618163046

          :  Hamiltonian                  GFN2-xTB          :
         :: total energy             -99.441216314679 Eh    ::
         :: gradient norm              0.004056104940 Eh/a0 ::
         :: HOMO-LUMO gap              3.265415301656 eV    ::
         :: SCC energy              -100.774033785240 Eh    ::
         :: -> dispersion             -0.076311342522 Eh    ::
         :: repulsion energy           1.331946727708 Eh    ::

    * Orbital Energies and Occupations

         #    Occupation            Energy/Eh            Energy/eV
      -------------------------------------------------------------
         1        2.0000           -0.8573259             -23.3290
       ...           ...                  ...                  ...
        78        1.9999           -0.5254612             -14.2985
        79        1.9999           -0.5209614             -14.1761
        80        1.9998           -0.5181288             -14.0990
        81        1.9998           -0.5130906             -13.9619
        82        1.9998           -0.5126377             -13.9496
        83        1.9997           -0.5067822             -13.7902
        84        1.9995           -0.5007613             -13.6264
        85        1.9992           -0.4919796             -13.3874
        86        1.9981           -0.4785805             -13.0228
        87        1.9952           -0.4641367             -12.6298
        88        1.9916           -0.4553362             -12.3903
        89        1.9866           -0.4478984             -12.1879
        90        1.9490           -0.4264588             -11.6045 (HOMO)
        91        0.0383           -0.3064570              -8.3391 (LUMO)
        92        0.0291           -0.3020522              -8.2193
        93        0.0083           -0.2820645              -7.6754
        94        0.0067           -0.2786508              -7.5825
        95        0.0001           -0.2150708              -5.8524
        96        0.0000           -0.1821293              -4.9560
        97        0.0000           -0.1624252              -4.4198
        98        0.0000           -0.1559851              -4.2446
        99        0.0000           -0.1331952              -3.6244
       100        0.0000           -0.1187119              -3.2303
       101                         -0.0986458              -2.6843
       ...                                ...                  ...
       171                          0.6103356              16.6081
      -------------------------------------------------------------
                  HL-Gap            0.1200018 Eh            3.2654 eV

     #   Z          covCN         q      C6AA      α(0)
     1   7 N        3.545    -0.046    22.118     6.985
     2   6 C        3.834    -0.002    20.585     6.455
     3   6 C        3.932     0.005    20.425     6.423
     4   6 C        2.967    -0.018    28.457     8.750
     5   6 C        2.924    -0.088    30.195     9.011
     6   6 C        2.863     0.126    25.231     8.233
     7   8 O        1.706    -0.240    17.980     5.725
     8   6 C        3.645     0.031    20.387     6.490
     9   6 C        2.865     0.127    25.204     8.229
    10   8 O        1.706    -0.238    17.936     5.718
    11   6 C        3.646     0.029    20.408     6.492
    12   6 C        2.915    -0.077    29.912     8.969
    13   6 C        2.920    -0.061    29.523     8.910
    14   6 C        3.830    -0.074    21.895     6.658
    15   6 C        3.823    -0.074    21.889     6.658
    16   6 C        3.815     0.034    19.989     6.363
    17   7 N        2.725    -0.186    25.019     7.429
    18   6 C        3.754    -0.000    20.642     6.478
    19   6 C        3.806    -0.068    21.795     6.646
    20   6 C        2.970    -0.007    28.189     8.709
    21   6 C        2.922    -0.054    29.350     8.884
    22   6 C        2.915    -0.072    29.799     8.951
    23   6 C        2.866     0.126    25.238     8.235
    24   8 O        1.706    -0.242    18.006     5.729
    25   6 C        3.645     0.032    20.371     6.487
    26   6 C        2.864     0.126    25.228     8.233
    27   8 O        1.706    -0.243    18.020     5.731
    28   6 C        3.645     0.034    20.342     6.482
    29   6 C        2.922    -0.082    30.061     8.991
    30   6 C        3.701    -0.042    21.496     6.630
    31   6 C        3.871    -0.029    21.041     6.522
    32   6 C        3.754    -0.124    22.936     6.829
    33   6 C        3.770    -0.029    21.126     6.550
    34   1 H        0.926     0.039     2.461     2.453
    35   1 H        0.924     0.042     2.423     2.434
    36   1 H        0.925     0.077     2.009     2.217
    37   1 H        0.924     0.044     2.402     2.424
    38   1 H        0.924     0.047     2.361     2.403
    39   1 H        0.925     0.077     2.015     2.220
    40   1 H        0.924     0.047     2.358     2.401
    41   1 H        0.926     0.048     2.348     2.396
    42   1 H        0.926     0.020     2.739     2.588
    43   1 H        0.925     0.067     2.117     2.275
    44   1 H        0.924     0.040     2.453     2.449
    45   1 H        0.925     0.059     2.207     2.323
    46   1 H        0.925     0.058     2.226     2.333
    47   1 H        0.925     0.092     1.856     2.130
    48   1 H        0.924     0.040     2.454     2.450
    49   1 H        0.924     0.054     2.273     2.358
    50   1 H        0.924     0.027     2.634     2.538
    51   1 H        0.924     0.030     2.582     2.513
    52   1 H        0.924     0.041     2.432     2.439
    53   1 H        0.926     0.030     2.586     2.515
    54   1 H        0.926     0.046     2.368     2.407
    55   1 H        0.924     0.044     2.392     2.418
    56   1 H        0.924     0.046     2.365     2.405
    57   1 H        0.925     0.073     2.054     2.241
    58   1 H        0.925     0.073     2.057     2.243
    59   1 H        0.924     0.041     2.441     2.443
    60   1 H        0.924     0.044     2.396     2.421
    61   1 H        0.926     0.039     2.466     2.456
    62   1 H        0.924     0.035     2.518     2.481
    63   1 H        0.925     0.042     2.420     2.433
    64   1 H        0.925     0.053     2.279     2.361
    65   1 H        0.925     0.076     2.024     2.225
    66   1 H        0.925     0.040     2.454     2.450
    67   1 H        0.925     0.074     2.043     2.235
    68   1 H        0.925     0.057     2.240     2.341
    69   1 H        0.859     0.240     0.921     1.504
    70   1 H        0.924     0.090     1.874     2.141
    71   1 H        0.925     0.090     1.880     2.144
    72   1 H        0.859     0.244     0.908     1.493

Wiberg/Mayer (AO) data.
largest (>0.10) Wiberg bond orders for each atom

     #   Z sym  total        # sym  WBO       # sym  WBO       # sym  WBO
 ---------------------------------------------------------------------------
     1   7 N    3.724 --    33 C    0.938    69 H    0.914    72 H    0.914
                             2 C    0.906
     2   6 C    3.896 --     3 C    0.968    16 C    0.967    47 H    0.946
                             1 N    0.906
     3   6 C    3.977 --     4 C    0.984    14 C    0.971     2 C    0.968
                            31 C    0.955
     4   6 C    3.950 --    13 C    1.440     5 C    1.342     3 C    0.984
     5   6 C    3.956 --     6 C    1.415     4 C    1.342    34 H    0.961
     6   6 C    3.920 --     5 C    1.415     9 C    1.230     7 O    1.085
     7   8 O    2.261 --     6 C    1.085     8 C    0.983
     8   6 C    3.940 --     7 O    0.983    36 H    0.977    37 H    0.976
                            35 H    0.975
     9   6 C    3.916 --    12 C    1.403     6 C    1.230    10 O    1.093
    10   8 O    2.265 --     9 C    1.093    11 C    0.980
    11   6 C    3.938 --    10 O    0.980    39 H    0.978    40 H    0.976
                            38 H    0.975
    12   6 C    3.962 --     9 C    1.403    13 C    1.385    41 H    0.965
    13   6 C    3.964 --     4 C    1.440    12 C    1.385    42 H    0.957
    14   6 C    3.990 --    15 C    1.008    44 H    0.974     3 C    0.971
                            43 H    0.971
    15   6 C    3.991 --    14 C    1.008    46 H    0.974    16 C    0.973
                            45 H    0.973
    16   6 C    3.983 --    17 N    1.014    15 C    0.973     2 C    0.967
                            48 H    0.956
    17   7 N    3.148 --    16 C    1.014    30 C    1.008    18 C    0.998
    18   6 C    3.975 --    17 N    0.998    19 C    0.976    50 H    0.973
                            49 H    0.970
    19   6 C    3.995 --    20 C    1.009    18 C    0.976    51 H    0.975
                            52 H    0.969
    20   6 C    3.968 --    21 C    1.431    29 C    1.369    19 C    1.009
    21   6 C    3.971 --    20 C    1.431    22 C    1.402    53 H    0.970
    22   6 C    3.972 --    23 C    1.402    21 C    1.402    54 H    0.965
    23   6 C    3.919 --    22 C    1.402    26 C    1.241    24 O    1.083
    24   8 O    2.249 --    23 C    1.083    25 C    0.982
    25   6 C    3.940 --    24 O    0.982    57 H    0.978    55 H    0.975
                            56 H    0.975
    26   6 C    3.921 --    29 C    1.410    23 C    1.241    27 O    1.080
    27   8 O    2.249 --    26 C    1.080    28 C    0.984
    28   6 C    3.942 --    27 O    0.984    58 H    0.978    59 H    0.975
                            60 H    0.975
    29   6 C    3.970 --    26 C    1.410    20 C    1.369    61 H    0.963
    30   6 C    3.980 --    17 N    1.008    64 H    0.980    63 H    0.977
                            62 H    0.972
    31   6 C    3.980 --    32 C    1.011    33 C    0.992    65 H    0.961
                             3 C    0.955
    32   6 C    3.989 --    31 C    1.011    68 H    0.982    66 H    0.982
                            67 H    0.978
    33   6 C    3.914 --    31 C    0.992    71 H    0.968    70 H    0.967
                             1 N    0.938
    34   1 H    0.998 --     5 C    0.961
    35   1 H    0.998 --     8 C    0.975
    36   1 H    0.994 --     8 C    0.977
    37   1 H    0.997 --     8 C    0.976
    38   1 H    0.997 --    11 C    0.975
    39   1 H    0.994 --    11 C    0.978
    40   1 H    0.997 --    11 C    0.976
    41   1 H    0.997 --    12 C    0.965
    42   1 H    0.999 --    13 C    0.957
    43   1 H    0.995 --    14 C    0.971
    44   1 H    0.998 --    14 C    0.974
    45   1 H    0.996 --    15 C    0.973
    46   1 H    0.996 --    15 C    0.974
    47   1 H    0.991 --     2 C    0.946
    48   1 H    0.998 --    16 C    0.956
    49   1 H    0.997 --    18 C    0.970
    50   1 H    0.999 --    18 C    0.973
    51   1 H    0.998 --    19 C    0.975
    52   1 H    0.997 --    19 C    0.969
    53   1 H    0.999 --    21 C    0.970
    54   1 H    0.997 --    22 C    0.965
    55   1 H    0.996 --    25 C    0.975
    56   1 H    0.996 --    25 C    0.975
    57   1 H    0.994 --    25 C    0.978
    58   1 H    0.994 --    28 C    0.978
    59   1 H    0.997 --    28 C    0.975
    60   1 H    0.997 --    28 C    0.975
    61   1 H    0.998 --    29 C    0.963
    62   1 H    0.998 --    30 C    0.972
    63   1 H    0.998 --    30 C    0.977
    64   1 H    0.997 --    30 C    0.980
    65   1 H    0.994 --    31 C    0.961
    66   1 H    0.998 --    32 C    0.982
    67   1 H    0.995 --    32 C    0.978
    68   1 H    0.996 --    32 C    0.982
    69   1 H    0.942 --     1 N    0.914
    70   1 H    0.992 --    33 C    0.967
    71   1 H    0.991 --    33 C    0.968
    72   1 H    0.940 --     1 N    0.914
 ---------------------------------------------------------------------------

molecular dipole:
                 x           y           z       tot (Debye)
 q only:       -2.774       3.548       1.600
   full:       -2.549       3.818       1.712      12.453

           -------------------------------------------------
          | TOTAL ENERGY              -99.441216314679 Eh   |
          | GRADIENT NORM               0.004056104940 Eh/α |
          | HOMO-LUMO GAP               3.265415301656 eV   |
           -------------------------------------------------

 * finished run on 2024/04/06 at 11:15:40.975
