   * xtb version 6.6.1 (8d0f1dd) compiled by 'conda@1efc2f54142f' on 2023-08-01
          program call               : xtb struc.xyz --opt loose --input .xc1 --gfn2

   ID    Z sym.   atoms
    1    6 C      1, 3, 5-7, 10, 11, 14
    2    7 N      2, 4, 9, 13
    3    8 O      8, 12
    4    1 H      15-25
constraining bond 15 17 to    3.2800000 Å, actual value:    1.7729540 Å

          :  Hamiltonian                  GFN2-xTB          :
 * total energy  :   -26.0267452 Eh     change       -0.6650680E-10 Eh
 * total energy  :   -36.8342337 Eh     change       -0.1080749E+02 Eh
 * total energy  :   -41.0888431 Eh     change       -0.4254609E+01 Eh
 * total energy  :   -42.0352091 Eh     change       -0.9463660E+00 Eh
 * total energy  :   -42.0648898 Eh     change       -0.2968072E-01 Eh
 * total energy  :   -42.0638729 Eh     change        0.1016902E-02 Eh
 * total energy  :   -42.0664346 Eh     change       -0.2561631E-02 Eh
 * total energy  :   -42.0674373 Eh     change       -0.1002692E-02 Eh
 * total energy  :   -42.0517046 Eh     change        0.1573268E-01 Eh
 * total energy  :   -42.0714205 Eh     change       -0.1971593E-01 Eh
 * total energy  :   -42.1915597 Eh     change       -0.1863293E-03 Eh
 * total energy  :   -42.1916384 Eh     change       -0.7870917E-04 Eh
 * total energy  :   -42.1917104 Eh     change       -0.7196165E-04 Eh
 * total energy  :   -42.1917818 Eh     change       -0.7140408E-04 Eh
 * total energy  :   -42.1918386 Eh     change       -0.5681598E-04 Eh
 * total energy  :   -42.1919613 Eh     change       -0.1227475E-03 Eh
 * total energy  :   -42.1920290 Eh     change       -0.6768578E-04 Eh
 * total energy  :   -42.1921024 Eh     change       -0.7336586E-04 Eh
 * total energy  :   -42.1921441 Eh     change       -0.4173006E-04 Eh
   *** GEOMETRY OPTIMIZATION CONVERGED AFTER 47 ITERATIONS ***

 final structure:
================
25
 xtb: 6.6.1 (8d0f1dd)
C            3.28739392153117        0.92976685440773       -0.03648441561948
N            2.37819369620851       -0.04353894086251        0.00536013266145
C            2.58725314487767       -1.37169121965240        0.14132905411629
N            1.38719738099518       -2.04111515577919        0.13945449217099
C            0.39733802153981       -1.14497545083922        0.00532727506194
C            0.99079953841324        0.12982541927787       -0.05628821050787
C            0.19059153774984        1.26543436131940       -0.02605132287862
O            0.63541071316051        2.51109581457584        0.07305588108986
N           -1.15629207379529        1.06410099883475       -0.06299292086869
C           -2.07030390052474        2.19651506861413       -0.05272374922469
C           -1.78056308292855       -0.19034955092709       -0.08746545966533
O           -2.97239684127570       -0.29046639031771       -0.13473581968919
N           -0.94518754025897       -1.31263697520586       -0.03483858059436
C           -1.54304793864659       -2.63385636563723       -0.01600167890050
H            4.31229281501172        0.68592526175076        0.12265910948316
H            3.05821752044350        1.88625283392725       -0.45961280890046
H            1.59487785137894        2.51975246772830        0.25287871394191
H            3.54356011228307       -1.83729360579156        0.23012635294347
H           -1.49926333273472        3.11891112125934       -0.05474738850452
H           -2.71375999710360        2.14866310229306       -0.93071278099943
H           -2.70261165493985        2.14606490078091        0.83349916552909
H           -1.29819542273906       -3.14980825997812        0.91299424956737
H           -1.19779003108877       -3.21685072378926       -0.87008527600012
H           -2.62273312388429       -2.50930538808391       -0.08057880645985
H            1.29945020042727       -3.04218163630508        0.21780641014761

          :  Hamiltonian                  GFN2-xTB          :
         :: total energy             -42.192144114683 Eh    ::
         :: gradient norm              0.002807747900 Eh/a0 ::
         :: HOMO-LUMO gap              1.537194916733 eV    ::
         :: SCC energy               -42.718174460099 Eh    ::
         :: -> dispersion             -0.023074307802 Eh    ::
         :: repulsion energy           0.525902835089 Eh    ::

    * Orbital Energies and Occupations

         #    Occupation            Energy/Eh            Energy/eV
      -------------------------------------------------------------
         1        2.0000           -0.9014754             -24.5304
       ...           ...                  ...                  ...
        25        2.0000           -0.6700928             -18.2342
        26        2.0000           -0.6684554             -18.1896
        27        2.0000           -0.6575386             -17.8925
        28        2.0000           -0.6465718             -17.5941
        29        2.0000           -0.6392428             -17.3947
        30        1.9999           -0.6219086             -16.9230
        31        1.9999           -0.6158211             -16.7573
        32        1.9999           -0.6120041             -16.6535
        33        1.9998           -0.6088357             -16.5673
        34        1.9992           -0.5843995             -15.9023
        35        1.9987           -0.5763784             -15.6841
        36        1.9955           -0.5569902             -15.1565
        37        1.7035           -0.4880129             -13.2795 (HOMO)
        38        0.2791           -0.4315220             -11.7423 (LUMO)
        39        0.0208           -0.3881593             -10.5624
        40        0.0037           -0.3608364              -9.8189
        41        0.0001           -0.2934064              -7.9840
        42        0.0000           -0.2049796              -5.5778
        43                         -0.1718813              -4.6771
        44                         -0.1440676              -3.9203
        45                         -0.1303967              -3.5483
        46                         -0.1091467              -2.9700
        47                         -0.0679078              -1.8479
        48                         -0.0354692              -0.9652
       ...                                ...                  ...
        67                          0.5370584              14.6141
      -------------------------------------------------------------
                  HL-Gap            0.0564909 Eh            1.5372 eV

     #   Z          covCN         q      C6AA      α(0)
     1   6 C        2.788    -0.130    31.302     9.165
     2   7 N        2.794     0.103    19.464     6.553
     3   6 C        3.036    -0.003    28.075     8.691
     4   7 N        2.774    -0.063    22.451     7.037
     5   6 C        3.015     0.105    25.665     8.310
     6   6 C        3.106    -0.037    28.780     8.790
     7   6 C        2.775     0.202    23.710     7.975
     8   8 O        1.659    -0.328    19.503     5.962
     9   7 N        2.746    -0.048    22.172     6.993
    10   6 C        3.706    -0.070    21.987     6.703
    11   6 C        2.727     0.312    21.694     7.625
    12   8 O        0.859    -0.355    20.809     6.116
    13   7 N        2.737    -0.058    22.369     7.024
    14   6 C        3.698    -0.072    22.046     6.716
    15   1 H        0.927     0.082     1.957     2.188
    16   1 H        0.926     0.071     2.078     2.254
    17   1 H        0.804     0.352     0.583     1.199
    18   1 H        0.927     0.105     1.740     2.063
    19   1 H        0.925     0.110     1.700     2.039
    20   1 H        0.925     0.107     1.720     2.051
    21   1 H        0.925     0.104     1.749     2.068
    22   1 H        0.924     0.083     1.944     2.180
    23   1 H        0.925     0.084     1.933     2.174
    24   1 H        0.925     0.125     1.576     1.963
    25   1 H        0.860     0.219     1.014     1.578

Wiberg/Mayer (AO) data.
largest (>0.10) Wiberg bond orders for each atom

     #   Z sym  total        # sym  WBO       # sym  WBO       # sym  WBO
 ---------------------------------------------------------------------------
     1   6 C    3.566 --     2 N    1.304    15 H    0.971    16 H    0.955
                             3 C    0.177
     2   7 N    3.721 --     1 C    1.304     3 C    1.250     6 C    1.071
     3   6 C    3.709 --     2 N    1.250     4 N    1.175    18 H    0.960
                             1 C    0.177
     4   7 N    3.555 --     5 C    1.260     3 C    1.175    25 H    0.924
     5   6 C    3.867 --     4 N    1.260     6 C    1.234    13 N    1.179
     6   6 C    3.906 --     7 C    1.295     5 C    1.234     2 N    1.071
     7   6 C    3.782 --     6 C    1.295     9 N    1.203     8 O    1.159
     8   8 O    2.178 --     7 C    1.159    17 H    0.825
     9   7 N    3.537 --     7 C    1.203    11 C    1.070    10 C    0.969
                            12 O    0.126
    10   6 C    3.916 --    19 H    0.971     9 N    0.969    21 H    0.964
                            20 H    0.963
    11   6 C    3.946 --    12 O    1.716    13 N    1.070     9 N    1.070
    12   8 O    2.069 --    11 C    1.716    13 N    0.135     9 N    0.126
    13   7 N    3.516 --     5 C    1.179    11 C    1.070    14 C    0.974
                            12 O    0.135
    14   6 C    3.926 --    13 N    0.974    23 H    0.971    22 H    0.970
                            24 H    0.965
    15   1 H    0.992 --     1 C    0.971
    16   1 H    0.994 --     1 C    0.955
    17   1 H    0.874 --     8 O    0.825
    18   1 H    0.988 --     3 C    0.960
    19   1 H    0.987 --    10 C    0.971
    20   1 H    0.983 --    10 C    0.963
    21   1 H    0.984 --    10 C    0.964
    22   1 H    0.989 --    14 C    0.970
    23   1 H    0.989 --    14 C    0.971
    24   1 H    0.984 --    14 C    0.965
    25   1 H    0.952 --     4 N    0.924
 ---------------------------------------------------------------------------

molecular dipole:
                 x           y           z       tot (Debye)
 q only:        1.774      -0.783       0.212
   full:        2.255      -1.074       0.223       6.374

           -------------------------------------------------
          | TOTAL ENERGY              -42.192144114683 Eh   |
          | GRADIENT NORM               0.002807747900 Eh/α |
          | HOMO-LUMO GAP               1.537194916733 eV   |
           -------------------------------------------------

 * finished run on 2024/06/05 at 20:00:20.041
