   * xtb version 6.6.1 (8d0f1dd) compiled by 'conda@1efc2f54142f' on 2023-08-01
          program call               : xtb struc.xyz --opt loose --input .xc1 --gfn2

   ID    Z sym.   atoms
    1    7 N      1, 17
    2    6 C      2-6, 8, 9, 11-16, 18-23, 25, 26, 28-33
    3    8 O      7, 10, 24, 27
    4    1 H      34-72
constraining bond 51 52 to    3.2800000 Å, actual value:    1.7715510 Å

          :  Hamiltonian                  GFN2-xTB          :
 * total energy  :   -98.9978476 Eh     change       -0.4035485E-08 Eh
 * total energy  :   -99.1585411 Eh     change       -0.1606935E+00 Eh
 * total energy  :   -99.2314403 Eh     change       -0.7289916E-01 Eh
 * total energy  :   -99.2507762 Eh     change       -0.1933593E-01 Eh
 * total energy  :   -99.2540055 Eh     change       -0.3229279E-02 Eh
 * total energy  :   -99.2546222 Eh     change       -0.6167200E-03 Eh
 * total energy  :   -99.2550515 Eh     change       -0.4293138E-03 Eh
 * total energy  :   -99.2552596 Eh     change       -0.2080229E-03 Eh
 * total energy  :   -99.2554492 Eh     change       -0.1895865E-03 Eh
 * total energy  :   -99.2556065 Eh     change       -0.1573926E-03 Eh
 * total energy  :   -99.2557497 Eh     change       -0.1431830E-03 Eh
 * total energy  :   -99.2558636 Eh     change       -0.1138506E-03 Eh
 * total energy  :   -99.2559984 Eh     change       -0.1348275E-03 Eh
 * total energy  :   -99.2560979 Eh     change       -0.9951552E-04 Eh
 * total energy  :   -99.2561571 Eh     change       -0.5916775E-04 Eh
 * total energy  :   -99.2561944 Eh     change       -0.3733351E-04 Eh
   *** GEOMETRY OPTIMIZATION CONVERGED AFTER 16 ITERATIONS ***

 final structure:
================
72
 xtb: 6.6.1 (8d0f1dd)
N           -1.85782317083602        2.76657916778254        2.21001849940800
C           -1.81926647036773        2.10667383493266        1.15081523973955
C           -2.98043361551749        1.90648823905710        0.21648823837527
C           -3.46803844464155        0.46701883399162        0.30218776275955
C           -4.43240032664827        0.00410757672462       -0.59583488658803
C           -4.90822473395751       -1.29567970759611       -0.54047873157454
O           -5.84279041140821       -1.82185485340756       -1.35779141758326
C           -6.48183545040891       -0.99793484743228       -2.30443223440928
C           -4.39749963690911       -2.18696176472180        0.44229481186376
O           -4.90728029120364       -3.43413182992619        0.41636475324599
C           -4.51462896842682       -4.35396423608621        1.40822393946768
C           -3.44482272576684       -1.71962290528448        1.33295796898950
C           -2.98980249678159       -0.40865023073422        1.26432390199506
C           -2.44067422837297        2.18332016761602       -1.21093197106437
C           -1.48523540619546        1.10207081438968       -1.75443325329723
C           -0.15451652176179        1.09464414959737       -1.10396865666871
N            0.48592970858546        0.01907805001622       -0.66740999647989
C            1.86060960751834        0.11226616838356       -0.23022374851903
C            2.83303537973902       -0.33107229019176       -1.32912266192115
C            4.24774986549545       -0.14020805363285       -0.93465588103798
C            4.90854704163568        1.06078300655883       -1.16236636477985
C            6.20169412408313        1.26899698747457       -0.71448247252417
C            6.88537041815108        0.27433907794204       -0.02906398718776
O            8.14000878082970        0.36642007736145        0.44526289112506
C            8.87516133670351        1.54877450564584        0.22186686117681
C            6.23583739384762       -0.97286943571383        0.18821396978232
O            6.96955177088177       -1.89452395099541        0.84267164200582
C            6.42058966608609       -3.16820392068856        1.08318021602375
C            4.94345334761615       -1.15537268846369       -0.27272026516657
C           -0.11362789915925       -1.29266799453549       -0.69149472681084
C           -4.17705266859120        2.85190250623357        0.53696097911030
C           -4.79285548444374        2.52271658905176        1.89529622909942
C           -3.80455218086938        4.33114155625915        0.48716332377339
H           -4.83094661403372        0.67458252207677       -1.33905776962005
H           -6.99176295324583       -0.15681240119677       -1.82531852423404
H           -7.21815443773202       -1.63340220897744       -2.79284873708997
H           -5.77729433063821       -0.62266896302598       -3.05366809856491
H           -4.75145013557488       -3.98654367125316        2.41107049278047
H           -5.08632862680472       -5.25849972164093        1.21087841423948
H           -3.44545935186156       -4.58074510147042        1.34474285244538
H           -3.05319000550729       -2.36685791574835        2.10070447275251
H           -2.27217392989875       -0.07171859118447        1.99630727673046
H           -3.28548631477183        2.25441556622985       -1.89532605600024
H           -1.92951201467450        3.14643378834486       -1.21658353641139
H           -1.96580951670811        0.12711084812495       -1.69605057468407
H           -1.32618831552671        1.33308131883482       -2.81544286454723
H           -0.89931416864042        1.62909050023674        0.76143171348952
H            0.40186322703584        2.02123450444787       -1.10362209231393
H            1.98672133286166       -0.51249187914551        0.66038649105651
H            2.07622364933705        1.14828532492331        0.04715443717337
H            2.63146807347590        0.86815024226898       -2.27488194714826
H            2.69766990143169       -1.80758813965638       -1.23204688986707
H            4.41377172802179        1.85298019787857       -1.70592754898188
H            6.67802779836019        2.21516045792181       -0.91120843949222
H            8.41007347983312        2.40878981481256        0.71318847096844
H            8.98731296317127        1.75323765209357       -0.84687243473561
H            9.85611674199062        1.37236665867769        0.65914540614246
H            7.19828379567490       -3.73071420414888        1.59597332260049
H            5.53630693345658       -3.10718127591171        1.72590773636252
H            6.16329442126561       -3.67717160320602        0.14919516768928
H            4.45698708558647       -2.10822121124309       -0.12548768398623
H           -0.24742148490276       -1.64460179683716       -1.71604731620373
H           -1.08423682611341       -1.27927250496951       -0.18878359617094
H            0.53645466836249       -1.99004730141047       -0.16970123037727
H           -4.93586791064362        2.66869610136397       -0.23182060751798
H           -4.06940443355141        2.70351789788297        2.68369401633800
H           -5.11325727409052        1.48487424140923        1.94182853023394
H           -5.65799506011840        3.15729563020910        2.06741018439482
H           -3.02441553652831        4.55023467226220        1.20979507069503
H           -3.47397241985865        4.63498107076806       -0.50258060125992
H           -4.67723190539383        4.92610094076713        0.74321587779021
H           -1.00136394495159        2.85445546238338        2.74763148559564

          :  Hamiltonian                  GFN2-xTB          :
         :: total energy             -99.256194422133 Eh    ::
         :: gradient norm              0.002680787972 Eh/a0 ::
         :: HOMO-LUMO gap              1.688728668693 eV    ::
         :: SCC energy              -100.634136685368 Eh    ::
         :: -> dispersion             -0.077118979595 Eh    ::
         :: repulsion energy           1.347044941285 Eh    ::

    * Orbital Energies and Occupations

         #    Occupation            Energy/Eh            Energy/eV
      -------------------------------------------------------------
         1        2.0000           -0.8096934             -22.0329
       ...           ...                  ...                  ...
        78        1.9982           -0.5295843             -14.4107
        79        1.9982           -0.5289321             -14.3930
        80        1.9975           -0.5238524             -14.2547
        81        1.9974           -0.5233652             -14.2415
        82        1.9969           -0.5204749             -14.1628
        83        1.9959           -0.5162806             -14.0487
        84        1.9952           -0.5136639             -13.9775
        85        1.9942           -0.5105405             -13.8925
        86        1.9806           -0.4914445             -13.3729
        87        1.9777           -0.4891809             -13.3113
        88        1.9380           -0.4726971             -12.8627
        89        1.8689           -0.4602777             -12.5248
        90        1.8411           -0.4569879             -12.4353 (HOMO)
        91        0.3740           -0.3949283             -10.7465 (LUMO)
        92        0.0307           -0.3522875              -9.5862
        93        0.0155           -0.3413817              -9.2895
        94        0.0035           -0.3175165              -8.6401
        95        0.0029           -0.3145988              -8.5607
        96        0.0025           -0.3126261              -8.5070
        97        0.0013           -0.3022362              -8.2243
        98        0.0000           -0.2274698              -6.1898
        99        0.0000           -0.1918745              -5.2212
       100        0.0000           -0.1870070              -5.0887
       101                         -0.1356921              -3.6924
       ...                                ...                  ...
       171                          0.5741377              15.6231
      -------------------------------------------------------------
                  HL-Gap            0.0620596 Eh            1.6887 eV

     #   Z          covCN         q      C6AA      α(0)
     1   7 N        1.773    -0.267    27.745     7.800
     2   6 C        2.826     0.100    25.768     8.318
     3   6 C        3.907     0.006    20.411     6.422
     4   6 C        2.974     0.003    27.953     8.672
     5   6 C        2.920    -0.079    29.981     8.979
     6   6 C        2.861     0.130    25.146     8.219
     7   8 O        1.706    -0.229    17.791     5.695
     8   6 C        3.644     0.027    20.458     6.502
     9   6 C        2.864     0.129    25.174     8.224
    10   8 O        1.706    -0.228    17.773     5.692
    11   6 C        3.646     0.027    20.458     6.500
    12   6 C        2.914    -0.075    29.869     8.962
    13   6 C        2.921    -0.054    29.335     8.882
    14   6 C        3.811    -0.065    21.741     6.637
    15   6 C        3.802    -0.069    21.820     6.651
    16   6 C        2.843     0.012    27.750     8.633
    17   7 N        2.729     0.015    20.991     6.805
    18   6 C        3.756    -0.013    20.863     6.513
    19   6 C        2.454    -0.019    28.821     8.761
    20   6 C        2.966     0.000    28.019     8.682
    21   6 C        2.924    -0.045    29.128     8.851
    22   6 C        2.913    -0.067    29.664     8.931
    23   6 C        2.865     0.135    25.055     8.205
    24   8 O        1.706    -0.219    17.632     5.669
    25   6 C        3.645     0.024    20.505     6.508
    26   6 C        2.862     0.134    25.068     8.207
    27   8 O        1.706    -0.224    17.715     5.683
    28   6 C        3.645     0.027    20.454     6.500
    29   6 C        2.922    -0.078    29.943     8.973
    30   6 C        3.700    -0.070    22.016     6.710
    31   6 C        3.853    -0.007    20.672     6.467
    32   6 C        3.756    -0.120    22.852     6.816
    33   6 C        3.755    -0.118    22.815     6.811
    34   1 H        0.926     0.052     2.289     2.366
    35   1 H        0.924     0.054     2.267     2.355
    36   1 H        0.925     0.082     1.961     2.190
    37   1 H        0.924     0.048     2.343     2.394
    38   1 H        0.924     0.055     2.255     2.348
    39   1 H        0.925     0.082     1.962     2.190
    40   1 H        0.924     0.048     2.343     2.394
    41   1 H        0.926     0.052     2.296     2.370
    42   1 H        0.926     0.038     2.477     2.461
    43   1 H        0.925     0.061     2.188     2.313
    44   1 H        0.924     0.054     2.269     2.356
    45   1 H        0.925     0.066     2.129     2.282
    46   1 H        0.924     0.082     1.961     2.190
    47   1 H        0.922     0.009     2.914     2.669
    48   1 H        0.926     0.070     2.083     2.257
    49   1 H        0.924     0.064     2.154     2.295
    50   1 H        0.924     0.064     2.158     2.297
    51   1 H        0.185     0.001     7.444     4.980
    52   1 H        0.307     0.012     6.581     4.648
    53   1 H        0.926     0.048     2.340     2.392
    54   1 H        0.926     0.061     2.189     2.314
    55   1 H        0.924     0.055     2.254     2.348
    56   1 H        0.924     0.057     2.234     2.337
    57   1 H        0.925     0.084     1.943     2.180
    58   1 H        0.925     0.083     1.952     2.185
    59   1 H        0.924     0.048     2.340     2.392
    60   1 H        0.924     0.053     2.280     2.361
    61   1 H        0.926     0.049     2.329     2.386
    62   1 H        0.924     0.080     1.982     2.202
    63   1 H        0.924     0.081     1.966     2.193
    64   1 H        0.925     0.079     1.989     2.205
    65   1 H        0.924     0.038     2.476     2.461
    66   1 H        0.925     0.071     2.073     2.251
    67   1 H        0.925     0.036     2.505     2.475
    68   1 H        0.925     0.052     2.300     2.372
    69   1 H        0.925     0.058     2.218     2.329
    70   1 H        0.925     0.035     2.522     2.483
    71   1 H        0.925     0.055     2.256     2.349
    72   1 H        0.860     0.157     1.353     1.822

Wiberg/Mayer (AO) data.
largest (>0.10) Wiberg bond orders for each atom

     #   Z sym  total        # sym  WBO       # sym  WBO       # sym  WBO
 ---------------------------------------------------------------------------
     1   7 N    3.045 --     2 C    1.956    72 H    0.941
     2   6 C    3.926 --     1 N    1.956     3 C    0.995    47 H    0.893
     3   6 C    3.976 --     2 C    0.995     4 C    0.968    14 C    0.959
                            31 C    0.941
     4   6 C    3.949 --    13 C    1.413     5 C    1.369     3 C    0.968
     5   6 C    3.962 --     6 C    1.401     4 C    1.369    34 H    0.958
     6   6 C    3.905 --     5 C    1.401     9 C    1.220     7 O    1.101
     7   8 O    2.256 --     6 C    1.101     8 C    0.977
     8   6 C    3.931 --     7 O    0.977    36 H    0.977    35 H    0.973
                            37 H    0.973
     9   6 C    3.901 --    12 C    1.392     6 C    1.220    10 O    1.103
    10   8 O    2.253 --     9 C    1.103    11 C    0.977
    11   6 C    3.931 --    10 O    0.977    39 H    0.977    40 H    0.974
                            38 H    0.973
    12   6 C    3.962 --    13 C    1.402     9 C    1.392    41 H    0.964
    13   6 C    3.954 --     4 C    1.413    12 C    1.402    42 H    0.962
    14   6 C    3.972 --    15 C    0.979    44 H    0.972    43 H    0.969
                             3 C    0.959
    15   6 C    3.986 --    16 C    1.058    14 C    0.979    45 H    0.963
                            46 H    0.928
    16   6 C    3.615 --    17 N    1.408    15 C    1.058    48 H    0.956
    17   7 N    3.490 --    16 C    1.408    30 C    0.998    18 C    0.985
    18   6 C    3.956 --    17 N    0.985    19 C    0.977    50 H    0.962
                            49 H    0.957
    19   6 C    3.894 --    20 C    1.054    18 C    0.977    52 H    0.897
                            51 H    0.885
    20   6 C    3.942 --    21 C    1.384    29 C    1.355    19 C    1.054
    21   6 C    3.945 --    22 C    1.426    20 C    1.384    53 H    0.958
    22   6 C    3.960 --    21 C    1.426    23 C    1.377    54 H    0.962
    23   6 C    3.892 --    22 C    1.377    26 C    1.215    24 O    1.115
    24   8 O    2.257 --    23 C    1.115    25 C    0.975
    25   6 C    3.927 --    57 H    0.977    24 O    0.975    56 H    0.973
                            55 H    0.972
    26   6 C    3.901 --    29 C    1.403    23 C    1.215    27 O    1.104
    27   8 O    2.255 --    26 C    1.104    28 C    0.978
    28   6 C    3.931 --    27 O    0.978    58 H    0.977    59 H    0.973
                            60 H    0.973
    29   6 C    3.955 --    26 C    1.403    20 C    1.355    61 H    0.953
    30   6 C    3.956 --    17 N    0.998    64 H    0.975    62 H    0.965
                            63 H    0.959
    31   6 C    3.972 --    33 C    1.009    32 C    1.008    65 H    0.960
                             3 C    0.941
    32   6 C    3.977 --    31 C    1.008    67 H    0.982    68 H    0.981
                            66 H    0.972
    33   6 C    3.983 --    31 C    1.009    70 H    0.983    71 H    0.980
                            69 H    0.977
    34   1 H    0.996 --     5 C    0.958
    35   1 H    0.993 --     8 C    0.973
    36   1 H    0.993 --     8 C    0.977
    37   1 H    0.994 --     8 C    0.973
    38   1 H    0.993 --    11 C    0.973
    39   1 H    0.993 --    11 C    0.977
    40   1 H    0.993 --    11 C    0.974
    41   1 H    0.996 --    12 C    0.964
    42   1 H    0.998 --    13 C    0.962
    43   1 H    0.995 --    14 C    0.969
    44   1 H    0.996 --    14 C    0.972
    45   1 H    0.995 --    15 C    0.963
    46   1 H    0.972 --    15 C    0.928
    47   1 H    0.987 --     2 C    0.893
    48   1 H    0.995 --    16 C    0.956
    49   1 H    0.991 --    18 C    0.957
    50   1 H    0.994 --    18 C    0.962
    51   1 H    0.973 --    19 C    0.885
    52   1 H    0.979 --    19 C    0.897
    53   1 H    0.997 --    21 C    0.958
    54   1 H    0.994 --    22 C    0.962
    55   1 H    0.991 --    25 C    0.972
    56   1 H    0.991 --    25 C    0.973
    57   1 H    0.992 --    25 C    0.977
    58   1 H    0.992 --    28 C    0.977
    59   1 H    0.993 --    28 C    0.973
    60   1 H    0.993 --    28 C    0.973
    61   1 H    0.996 --    29 C    0.953
    62   1 H    0.984 --    30 C    0.965
    63   1 H    0.987 --    30 C    0.959
    64   1 H    0.993 --    30 C    0.975
    65   1 H    0.992 --    31 C    0.960
    66   1 H    0.990 --    32 C    0.972
    67   1 H    0.997 --    32 C    0.982
    68   1 H    0.994 --    32 C    0.981
    69   1 H    0.994 --    33 C    0.977
    70   1 H    0.997 --    33 C    0.983
    71   1 H    0.994 --    33 C    0.980
    72   1 H    0.970 --     1 N    0.941
 ---------------------------------------------------------------------------

molecular dipole:
                 x           y           z       tot (Debye)
 q only:        0.619       0.005      -0.652
   full:        0.936      -0.002      -0.758       3.060

           -------------------------------------------------
          | TOTAL ENERGY              -99.256194422133 Eh   |
          | GRADIENT NORM               0.002680787972 Eh/α |
          | HOMO-LUMO GAP               1.688728668693 eV   |
           -------------------------------------------------

 * finished run on 2024/04/06 at 11:15:08.916
