   * xtb version 6.6.1 (8d0f1dd) compiled by 'conda@1efc2f54142f' on 2023-08-01
          program call               : xtb xtbopt.xyz --opt crude --input .xc2 --gfn2

   ID    Z sym.   atoms
    1    7 N      1, 17
    2    6 C      2-6, 8, 9, 11-16, 18-23, 25, 26, 28-33
    3    8 O      7, 10, 24, 27
    4    1 H      34-72

          :  Hamiltonian                  GFN2-xTB          :
 * total energy  :   -99.2858390 Eh     change       -0.6252776E-12 Eh
 * total energy  :   -99.3583852 Eh     change       -0.7254615E-01 Eh
 * total energy  :   -99.3794941 Eh     change       -0.2110899E-01 Eh
 * total energy  :   -99.4018280 Eh     change       -0.2233387E-01 Eh
 * total energy  :   -99.4053709 Eh     change       -0.3542905E-02 Eh
 * total energy  :   -99.4005509 Eh     change        0.4820060E-02 Eh
 * total energy  :   -99.4062045 Eh     change       -0.5653604E-02 Eh
 * total energy  :   -99.4056015 Eh     change        0.6030124E-03 Eh
 * total energy  :   -99.4064987 Eh     change       -0.8972902E-03 Eh
 * total energy  :   -99.4064683 Eh     change        0.3040384E-04 Eh
 * total energy  :   -99.4066163 Eh     change       -0.1479275E-03 Eh
   *** GEOMETRY OPTIMIZATION CONVERGED AFTER 11 ITERATIONS ***

 final structure:
================
72
 xtb: 6.6.1 (8d0f1dd)
N           -1.86723058406661        2.78030154193184        2.22115969037291
C           -1.82584951531352        2.11424431864382        1.16603439386444
C           -2.98278006397514        1.91032554045162        0.22800846077177
C           -3.46353414577082        0.46857364043843        0.31257178287612
C           -4.42123582452928        0.00401354658216       -0.59143320406673
C           -4.89858709195265       -1.29482304543749       -0.53683191510732
O           -5.83026829171237       -1.81939367519074       -1.35888158953439
C           -6.46641753769985       -0.99021117316800       -2.30274581729970
C           -4.39421231745008       -2.18531769310842        0.44956565815743
O           -4.90651866141712       -3.43175559202789        0.42138023560894
C           -4.51741984682202       -4.35501182319183        1.41128897044631
C           -3.44468091100916       -1.71806312171397        1.34364521608950
C           -2.98897085778941       -0.40685843882373        1.27681866007573
C           -2.43612758838501        2.19269399683994       -1.19540551282071
C           -1.48968724085559        1.10556199472267       -1.73860245773568
C           -0.16069194381494        1.09718088422243       -1.08626376043802
N            0.49085113790097        0.01597612394894       -0.67264274208578
C            1.86695938836749        0.11242199248178       -0.24551250583522
C            2.83773106678721       -0.33197133786518       -1.35626192544215
C            4.25881401991013       -0.12839558678428       -0.91063750365495
C            4.90172293525734        1.07869528203046       -1.13135163647523
C            6.20408850551353        1.27849417871928       -0.70087860112330
C            6.89018323822865        0.27346854676629       -0.03407841826086
O            8.15130027580822        0.35687640417644        0.42798216991185
C            8.88340390579806        1.54263741826589        0.21838639269022
C            6.23832174319246       -0.96946766128089        0.19772400131535
O            6.97783476647061       -1.89367484909038        0.84240214066767
C            6.43017963398133       -3.16738381338788        1.08513708547579
C            4.93490149240146       -1.14460554537823       -0.23958501945815
C           -0.10839956697352       -1.29639997937291       -0.69694693782175
C           -4.18594498349447        2.85091898758117        0.53525579551905
C           -4.81601504502672        2.52291377451807        1.88688809168551
C           -3.81731941087261        4.33097203265146        0.48196536376676
H           -4.81188824607719        0.67345211845838       -1.33963278015365
H           -6.97290420517734       -0.14873037379533       -1.82050256443837
H           -7.20508655717245       -1.62120531266053       -2.79321398398902
H           -5.76053318318838       -0.61469325362970       -3.05066650159054
H           -4.75733012015483       -3.99163837374720        2.41485149026824
H           -5.08891183382315       -5.25857177633538        1.20855887198704
H           -3.44816399388976       -4.58208564966698        1.35025082087108
H           -3.05734834554795       -2.36516246826073        2.11381692532447
H           -2.27362862290292       -0.07094057317585        2.01162530550200
H           -3.27698006166001        2.27970791037957       -1.88249794774933
H           -1.91357037816397        3.14987368236124       -1.19074553762106
H           -1.97593696913731        0.13359536259122       -1.67660122481254
H           -1.32924798765369        1.33281493090217       -2.80047589423011
H           -0.90567391537092        1.63208185957031        0.78037260825053
H            0.39542336276046        2.02354153237888       -1.08365282313322
H            2.01302128639609       -0.51106588818235        0.64067477037219
H            2.09011916371294        1.14645878784321        0.02551877495435
H            2.63963027136367        0.25638114511033       -2.25307952394223
H            2.66302675580308       -1.38341621823000       -1.58821311953880
H            4.39393035302685        1.87389063967554       -1.65585060387372
H            6.68070522386731        2.22501203372908       -0.89605050983428
H            8.41206587769603        2.39724351730613        0.71337150839722
H            9.00178084484392        1.75681975922371       -0.84793129013546
H            9.86124596688733        1.36396368760564        0.66131165391979
H            7.21123729352591       -3.72924395922466        1.59351248365860
H            5.54862066092494       -3.10913490430687        1.73164882756207
H            6.16803969382583       -3.67567972557834        0.15193803789584
H            4.43418643149878       -2.08579530547096       -0.07464549694580
H           -0.25726357569733       -1.64407054853384       -1.72147674133677
H           -1.07460653451445       -1.28402972442675       -0.18601461926476
H            0.54496898050347       -1.99767163816557       -0.18435299231180
H           -4.93599175616410        2.66236136512128       -0.24100626386839
H           -4.10410602430809        2.71088499372732        2.68402355392005
H           -5.13007279388185        1.48297912382793        1.93202245854280
H           -5.68807096292840        3.15175515736869        2.04515181857090
H           -3.04570999135527        4.55600134789893        1.21185616546548
H           -3.47589620441837        4.62932332266556       -0.50584516302216
H           -4.69437830880906        4.92539961654553        0.72376022892664
H           -1.01258667832678        2.87079645244990        2.76129955786776

          :  Hamiltonian                  GFN2-xTB          :
         :: total energy             -99.406616267459 Eh    ::
         :: gradient norm              0.001533044540 Eh/a0 ::
         :: HOMO-LUMO gap              1.675258795511 eV    ::
         :: SCC energy              -100.785615036339 Eh    ::
         :: -> dispersion             -0.075164599148 Eh    ::
         :: repulsion energy           1.377760151668 Eh    ::

    * Orbital Energies and Occupations

         #    Occupation            Energy/Eh            Energy/eV
      -------------------------------------------------------------
         1        2.0000           -0.8088975             -22.0112
       ...           ...                  ...                  ...
        78        1.9983           -0.5290814             -14.3970
        79        1.9983           -0.5287744             -14.3887
        80        1.9982           -0.5282908             -14.3755
        81        1.9975           -0.5230093             -14.2318
        82        1.9970           -0.5200888             -14.1523
        83        1.9960           -0.5154174             -14.0252
        84        1.9953           -0.5126758             -13.9506
        85        1.9944           -0.5098613             -13.8740
        86        1.9812           -0.4906239             -13.3506
        87        1.9785           -0.4885203             -13.2933
        88        1.9404           -0.4720431             -12.8449
        89        1.8733           -0.4595401             -12.5047
        90        1.8436           -0.4559550             -12.4072 (HOMO)
        91        0.3889           -0.3943904             -10.7319 (LUMO)
        92        0.0156           -0.3401852              -9.2569
        93        0.0036           -0.3166901              -8.6176
        94        0.0030           -0.3137786              -8.5383
        95        0.0027           -0.3124681              -8.5027
        96        0.0024           -0.3101021              -8.4383
        97        0.0000           -0.1910205              -5.1979
        98        0.0000           -0.1875804              -5.1043
        99                         -0.1366720              -3.7190
       100                         -0.0685578              -1.8656
       101                         -0.0643217              -1.7503
       ...                                ...                  ...
       171                          0.5763613              15.6836
      -------------------------------------------------------------
                  HL-Gap            0.0615646 Eh            1.6753 eV

     #   Z          covCN         q      C6AA      α(0)
     1   7 N        1.773    -0.267    27.754     7.801
     2   6 C        2.826     0.100    25.766     8.318
     3   6 C        3.907     0.007    20.411     6.422
     4   6 C        2.974     0.003    27.959     8.673
     5   6 C        2.920    -0.080    29.988     8.980
     6   6 C        2.862     0.130    25.154     8.221
     7   8 O        1.706    -0.229    17.805     5.697
     8   6 C        3.644     0.027    20.451     6.500
     9   6 C        2.864     0.129    25.180     8.225
    10   8 O        1.706    -0.228    17.787     5.694
    11   6 C        3.645     0.027    20.456     6.500
    12   6 C        2.914    -0.075    29.870     8.962
    13   6 C        2.921    -0.054    29.336     8.882
    14   6 C        3.812    -0.065    21.738     6.636
    15   6 C        3.802    -0.069    21.818     6.650
    16   6 C        2.843     0.008    27.835     8.646
    17   7 N        2.729     0.010    21.092     6.821
    18   6 C        3.756    -0.016    20.917     6.521
    19   6 C        3.808    -0.070    21.842     6.653
    20   6 C        2.969    -0.000    28.033     8.685
    21   6 C        2.922    -0.049    29.210     8.863
    22   6 C        2.914    -0.067    29.680     8.934
    23   6 C        2.865     0.134    25.078     8.209
    24   8 O        1.706    -0.222    17.678     5.677
    25   6 C        3.645     0.025    20.490     6.506
    26   6 C        2.863     0.133    25.086     8.210
    27   8 O        1.706    -0.225    17.725     5.684
    28   6 C        3.645     0.027    20.453     6.500
    29   6 C        2.919    -0.080    29.988     8.980
    30   6 C        3.699    -0.071    22.022     6.711
    31   6 C        3.853    -0.007    20.672     6.467
    32   6 C        3.756    -0.119    22.841     6.814
    33   6 C        3.755    -0.118    22.815     6.811
    34   1 H        0.926     0.052     2.293     2.368
    35   1 H        0.924     0.054     2.271     2.357
    36   1 H        0.925     0.081     1.965     2.192
    37   1 H        0.924     0.048     2.349     2.397
    38   1 H        0.924     0.055     2.258     2.350
    39   1 H        0.925     0.081     1.966     2.193
    40   1 H        0.924     0.048     2.348     2.396
    41   1 H        0.926     0.052     2.300     2.372
    42   1 H        0.926     0.038     2.478     2.462
    43   1 H        0.925     0.060     2.197     2.318
    44   1 H        0.924     0.054     2.276     2.359
    45   1 H        0.925     0.066     2.135     2.285
    46   1 H        0.924     0.080     1.983     2.202
    47   1 H        0.922     0.009     2.911     2.668
    48   1 H        0.926     0.070     2.090     2.261
    49   1 H        0.924     0.067     2.116     2.275
    50   1 H        0.924     0.067     2.121     2.277
    51   1 H        0.924     0.055     2.257     2.349
    52   1 H        0.924     0.056     2.252     2.347
    53   1 H        0.926     0.045     2.382     2.413
    54   1 H        0.926     0.059     2.215     2.327
    55   1 H        0.924     0.054     2.267     2.354
    56   1 H        0.924     0.056     2.246     2.344
    57   1 H        0.925     0.082     1.954     2.186
    58   1 H        0.925     0.082     1.959     2.189
    59   1 H        0.924     0.049     2.338     2.391
    60   1 H        0.924     0.053     2.288     2.366
    61   1 H        0.926     0.047     2.356     2.401
    62   1 H        0.924     0.076     2.021     2.223
    63   1 H        0.924     0.080     1.979     2.200
    64   1 H        0.925     0.079     1.985     2.203
    65   1 H        0.924     0.038     2.482     2.464
    66   1 H        0.925     0.070     2.083     2.257
    67   1 H        0.925     0.036     2.507     2.476
    68   1 H        0.925     0.051     2.305     2.374
    69   1 H        0.925     0.059     2.216     2.328
    70   1 H        0.925     0.034     2.525     2.485
    71   1 H        0.925     0.055     2.261     2.352
    72   1 H        0.860     0.157     1.353     1.822

Wiberg/Mayer (AO) data.
largest (>0.10) Wiberg bond orders for each atom

     #   Z sym  total        # sym  WBO       # sym  WBO       # sym  WBO
 ---------------------------------------------------------------------------
     1   7 N    3.045 --     2 C    1.957    72 H    0.941
     2   6 C    3.925 --     1 N    1.957     3 C    0.995    47 H    0.892
     3   6 C    3.976 --     2 C    0.995     4 C    0.968    14 C    0.958
                            31 C    0.942
     4   6 C    3.950 --    13 C    1.414     5 C    1.368     3 C    0.968
     5   6 C    3.962 --     6 C    1.401     4 C    1.368    34 H    0.958
     6   6 C    3.906 --     5 C    1.401     9 C    1.221     7 O    1.100
     7   8 O    2.255 --     6 C    1.100     8 C    0.978
     8   6 C    3.932 --     7 O    0.978    36 H    0.977    35 H    0.974
                            37 H    0.973
     9   6 C    3.902 --    12 C    1.393     6 C    1.221    10 O    1.102
    10   8 O    2.253 --     9 C    1.102    11 C    0.978
    11   6 C    3.931 --    10 O    0.978    39 H    0.977    40 H    0.974
                            38 H    0.973
    12   6 C    3.963 --    13 C    1.401     9 C    1.393    41 H    0.964
    13   6 C    3.955 --     4 C    1.414    12 C    1.401    42 H    0.962
    14   6 C    3.972 --    15 C    0.980    44 H    0.972    43 H    0.969
                             3 C    0.958
    15   6 C    3.987 --    16 C    1.059    14 C    0.980    45 H    0.962
                            46 H    0.928
    16   6 C    3.601 --    17 N    1.397    15 C    1.059    48 H    0.957
    17   7 N    3.479 --    16 C    1.397    30 C    0.998    18 C    0.988
    18   6 C    3.956 --    17 N    0.988    50 H    0.968    19 C    0.967
                            49 H    0.964
    19   6 C    3.976 --    20 C    1.008    51 H    0.972    52 H    0.972
                            18 C    0.967
    20   6 C    3.944 --    21 C    1.409    29 C    1.380    19 C    1.008
    21   6 C    3.950 --    22 C    1.417    20 C    1.409    53 H    0.968
    22   6 C    3.959 --    21 C    1.417    23 C    1.383    54 H    0.963
    23   6 C    3.895 --    22 C    1.383    26 C    1.219    24 O    1.111
    24   8 O    2.255 --    23 C    1.111    25 C    0.976
    25   6 C    3.928 --    57 H    0.977    24 O    0.976    55 H    0.973
                            56 H    0.973
    26   6 C    3.899 --    29 C    1.395    23 C    1.219    27 O    1.104
    27   8 O    2.254 --    26 C    1.104    28 C    0.979
    28   6 C    3.932 --    27 O    0.979    58 H    0.977    59 H    0.973
                            60 H    0.973
    29   6 C    3.959 --    26 C    1.395    20 C    1.380    61 H    0.962
    30   6 C    3.957 --    17 N    0.998    64 H    0.978    62 H    0.966
                            63 H    0.960
    31   6 C    3.972 --    33 C    1.009    32 C    1.008    65 H    0.960
                             3 C    0.942
    32   6 C    3.978 --    31 C    1.008    67 H    0.982    68 H    0.981
                            66 H    0.973
    33   6 C    3.984 --    31 C    1.009    70 H    0.983    71 H    0.980
                            69 H    0.977
    34   1 H    0.996 --     5 C    0.958
    35   1 H    0.993 --     8 C    0.974
    36   1 H    0.993 --     8 C    0.977
    37   1 H    0.994 --     8 C    0.973
    38   1 H    0.993 --    11 C    0.973
    39   1 H    0.993 --    11 C    0.977
    40   1 H    0.993 --    11 C    0.974
    41   1 H    0.996 --    12 C    0.964
    42   1 H    0.998 --    13 C    0.962
    43   1 H    0.995 --    14 C    0.969
    44   1 H    0.996 --    14 C    0.972
    45   1 H    0.995 --    15 C    0.962
    46   1 H    0.971 --    15 C    0.928
    47   1 H    0.987 --     2 C    0.892
    48   1 H    0.995 --    16 C    0.957
    49   1 H    0.991 --    18 C    0.964
    50   1 H    0.994 --    18 C    0.968
    51   1 H    0.996 --    19 C    0.972
    52   1 H    0.996 --    19 C    0.972
    53   1 H    0.997 --    21 C    0.968
    54   1 H    0.995 --    22 C    0.963
    55   1 H    0.992 --    25 C    0.973
    56   1 H    0.992 --    25 C    0.973
    57   1 H    0.992 --    25 C    0.977
    58   1 H    0.993 --    28 C    0.977
    59   1 H    0.993 --    28 C    0.973
    60   1 H    0.993 --    28 C    0.973
    61   1 H    0.997 --    29 C    0.962
    62   1 H    0.985 --    30 C    0.966
    63   1 H    0.987 --    30 C    0.960
    64   1 H    0.993 --    30 C    0.978
    65   1 H    0.993 --    31 C    0.960
    66   1 H    0.991 --    32 C    0.973
    67   1 H    0.997 --    32 C    0.982
    68   1 H    0.994 --    32 C    0.981
    69   1 H    0.994 --    33 C    0.977
    70   1 H    0.997 --    33 C    0.983
    71   1 H    0.994 --    33 C    0.980
    72   1 H    0.970 --     1 N    0.941
 ---------------------------------------------------------------------------

molecular dipole:
                 x           y           z       tot (Debye)
 q only:        0.659      -0.049      -0.805
   full:        0.955      -0.093      -0.990       3.504

           -------------------------------------------------
          | TOTAL ENERGY              -99.406616267459 Eh   |
          | GRADIENT NORM               0.001533044540 Eh/α |
          | HOMO-LUMO GAP               1.675258795511 eV   |
           -------------------------------------------------

 * finished run on 2024/04/06 at 11:15:10.972
