   * xtb version 6.6.1 (8d0f1dd) compiled by 'conda@1efc2f54142f' on 2023-08-01
          program call               : xtb xtbopt.xyz --opt crude --input .xc2 --gfn2

   ID    Z sym.   atoms
    1    6 C      1, 3, 5-7, 10, 11, 14
    2    7 N      2, 4, 9, 13
    3    8 O      8, 12
    4    1 H      15-25
########################################################################
[WARNING] Please study the warnings concerning your input carefully
-1- readin_getIntValue: could not parse ''
########################################################################

          :  Hamiltonian                  GFN2-xTB          :
 * total energy  :   -40.4278131 Eh     change       -0.3481659E-12 Eh
 * total energy  :   -42.1325818 Eh     change       -0.1704769E+01 Eh
 * total energy  :   -42.1519270 Eh     change       -0.1934521E-01 Eh
 * total energy  :   -42.1551988 Eh     change       -0.3271806E-02 Eh
 * total energy  :   -42.1564653 Eh     change       -0.1266456E-02 Eh
 * total energy  :   -42.1569905 Eh     change       -0.5252048E-03 Eh
 * total energy  :   -42.1574630 Eh     change       -0.4725398E-03 Eh
 * total energy  :   -42.1577145 Eh     change       -0.2515025E-03 Eh
 * total energy  :   -42.1579160 Eh     change       -0.2014655E-03 Eh
 * total energy  :   -42.1580373 Eh     change       -0.1213441E-03 Eh
   *** GEOMETRY OPTIMIZATION CONVERGED AFTER 10 ITERATIONS ***

 final structure:
================
25
 xtb: 6.6.1 (8d0f1dd)
C            3.24122088319083        1.24266614649505        0.02492765516794
N            2.18524844115900        0.31292415329772       -0.00723675173590
C            3.47929519762145       -0.23162673784523       -0.02808611298956
N            1.18752755619978       -2.18710019037830       -0.10085701422665
C            0.35777693130758       -1.22503761852566       -0.05857759513767
C            0.90780244419041        0.12341986860662       -0.00897069815428
C            0.03399306653354        1.31455062637740        0.05037197460557
O            0.49333387743295        2.43431850662789        0.08475250900952
N           -1.30980564565517        1.03778847666896        0.06756994740346
C           -2.24501673748924        2.14753292557342        0.13532312271630
C           -1.88156629612033       -0.23007638550404        0.01209815348457
O           -3.07508054118600       -0.36800445042208        0.02099198314846
N           -1.01847104815956       -1.31895024238038       -0.05199939215399
C           -1.62466015498460       -2.63891070937965       -0.10524078783746
H            3.39760985756864        1.78092940064269        0.95445641087535
H            3.81594204948983       -0.70841188917143       -0.93638378911654
H            3.37298924827921        1.86166419930858       -0.85595909774798
H            3.79470334793620       -0.75185049721924        0.87022162229284
H           -1.67814538029068        3.06633076106486        0.26799695709397
H           -2.83112234562069        2.19771852133029       -0.78364999977089
H           -2.93316862714246        1.99653973092121        0.96742574636830
H           -1.32318557007730       -3.22990987326735        0.76136709597423
H           -1.33367316606445       -3.15273340600355       -1.02293402933075
H           -2.70628962106761       -2.51586701015440       -0.09299573037013
H            0.85317374704804       -3.13966576506360       -0.13344056166877

          :  Hamiltonian                  GFN2-xTB          :
         :: total energy             -42.158037319001 Eh    ::
         :: gradient norm              0.005612738739 Eh/a0 ::
         :: HOMO-LUMO gap              1.717703948477 eV    ::
         :: SCC energy               -42.687727350436 Eh    ::
         :: -> dispersion             -0.021769334551 Eh    ::
         :: repulsion energy           0.529582137321 Eh    ::

    * Orbital Energies and Occupations

         #    Occupation            Energy/Eh            Energy/eV
      -------------------------------------------------------------
         1        2.0000           -0.8942565             -24.3340
       ...           ...                  ...                  ...
        25        1.9994           -0.6563519             -17.8602
        26        1.9993           -0.6551055             -17.8263
        27        1.9988           -0.6460055             -17.5787
        28        1.9988           -0.6455516             -17.5664
        29        1.9978           -0.6362465             -17.3131
        30        1.9966           -0.6291490             -17.1200
        31        1.9962           -0.6276632             -17.0796
        32        1.9924           -0.6164396             -16.7742
        33        1.9712           -0.5952497             -16.1976
        34        1.9502           -0.5864263             -15.9575
        35        1.9412           -0.5837027             -15.8834
        36        1.8924           -0.5737454             -15.6124
        37        1.8628           -0.5696448             -15.5008 (HOMO)
        38        0.4025           -0.5065203             -13.7831 (LUMO)
        39        0.0006           -0.3995312             -10.8718
        40        0.0003           -0.3887995             -10.5798
        41        0.0000           -0.3011752              -8.1954
        42        0.0000           -0.2764519              -7.5226
        43                         -0.2118102              -5.7636
        44                         -0.1675457              -4.5592
        45                         -0.1358461              -3.6966
        46                         -0.0958388              -2.6079
        47                         -0.0642889              -1.7494
        48                         -0.0493495              -1.3429
       ...                                ...                  ...
        67                          0.5602369              15.2448
      -------------------------------------------------------------
                  HL-Gap            0.0631245 Eh            1.7177 eV

     #   Z          covCN         q      C6AA      α(0)
     1   6 C        3.737    -0.017    20.966     6.534
     2   7 N        2.745     0.103    19.472     6.554
     3   6 C        3.738    -0.021    21.035     6.545
     4   7 N        1.791    -0.288    28.298     7.879
     5   6 C        2.826     0.165    24.442     8.101
     6   6 C        2.899     0.038    27.157     8.544
     7   6 C        2.772     0.268    22.485     7.766
     8   8 O        0.858    -0.338    20.479     6.067
     9   7 N        2.740    -0.066    22.523     7.048
    10   6 C        3.707    -0.063    21.852     6.682
    11   6 C        2.716     0.323    21.513     7.593
    12   8 O        0.860    -0.336    20.441     6.062
    13   7 N        2.741    -0.070    22.597     7.060
    14   6 C        3.703    -0.064    21.890     6.690
    15   1 H        0.925     0.130     1.538     1.939
    16   1 H        0.926     0.129     1.543     1.943
    17   1 H        0.925     0.130     1.532     1.936
    18   1 H        0.925     0.128     1.553     1.949
    19   1 H        0.925     0.118     1.631     1.997
    20   1 H        0.924     0.111     1.686     2.031
    21   1 H        0.924     0.113     1.672     2.022
    22   1 H        0.924     0.092     1.856     2.130
    23   1 H        0.924     0.093     1.854     2.130
    24   1 H        0.925     0.123     1.587     1.970
    25   1 H        0.860     0.201     1.100     1.643

Wiberg/Mayer (AO) data.
largest (>0.10) Wiberg bond orders for each atom

     #   Z sym  total        # sym  WBO       # sym  WBO       # sym  WBO
 ---------------------------------------------------------------------------
     1   6 C    3.885 --     3 C    0.976     2 N    0.967    15 H    0.940
                            17 H    0.940
     2   7 N    3.529 --     6 C    1.504     1 C    0.967     3 C    0.967
     3   6 C    3.886 --     1 C    0.976     2 N    0.967    16 H    0.941
                            18 H    0.939
     4   7 N    2.845 --     5 C    1.677    25 H    0.921    13 N    0.122
     5   6 C    3.947 --     4 N    1.677    13 N    1.123     6 C    1.057
     6   6 C    3.784 --     2 N    1.504     5 C    1.057     7 C    1.002
     7   6 C    3.930 --     8 O    1.683     9 N    1.151     6 C    1.002
     8   8 O    1.972 --     7 C    1.683     9 N    0.148
     9   7 N    3.523 --     7 C    1.151    11 C    1.080    10 C    0.974
                             8 O    0.148    12 O    0.104
    10   6 C    3.882 --     9 N    0.974    19 H    0.964    21 H    0.952
                            20 H    0.948
    11   6 C    3.949 --    12 O    1.696    13 N    1.090     9 N    1.080
    12   8 O    2.014 --    11 C    1.696    13 N    0.113     9 N    0.104
    13   7 N    3.492 --     5 C    1.123    11 C    1.090    14 C    0.978
                             4 N    0.122    12 O    0.113
    14   6 C    3.905 --    13 N    0.978    24 H    0.961    23 H    0.960
                            22 H    0.959
    15   1 H    0.972 --     1 C    0.940
    16   1 H    0.972 --     3 C    0.941
    17   1 H    0.972 --     1 C    0.940
    18   1 H    0.972 --     3 C    0.939
    19   1 H    0.981 --    10 C    0.964
    20   1 H    0.966 --    10 C    0.948
    21   1 H    0.969 --    10 C    0.952
    22   1 H    0.978 --    14 C    0.959
    23   1 H    0.978 --    14 C    0.960
    24   1 H    0.981 --    14 C    0.961
    25   1 H    0.951 --     4 N    0.921
 ---------------------------------------------------------------------------

molecular dipole:
                 x           y           z       tot (Debye)
 q only:        2.119      -0.622      -0.017
   full:        1.855      -0.862      -0.031       5.200

           -------------------------------------------------
          | TOTAL ENERGY              -42.158037319001 Eh   |
          | GRADIENT NORM               0.005612738739 Eh/α |
          | HOMO-LUMO GAP               1.717703948477 eV   |
           -------------------------------------------------

 * finished run on 2024/06/05 at 19:58:06.280
