   * xtb version 6.6.1 (8d0f1dd) compiled by 'conda@1efc2f54142f' on 2023-08-01
          program call               : xtb struc.xyz --opt loose --input .xc1 --gfn2

   ID    Z sym.   atoms
    1    7 N      1, 17
    2    6 C      2-6, 8, 9, 11-16, 18-23, 25, 26, 28-33
    3    8 O      7, 10, 24, 27
    4    1 H      34-72
constraining bond 21 50 to    4.7133300 Å, actual value:    3.0074394 Å

          :  Hamiltonian                  GFN2-xTB          :
 * total energy  :   -99.9237320 Eh     change       -0.4035485E-08 Eh
 * total energy  :  -100.3825203 Eh     change       -0.4587883E+00 Eh
 * total energy  :  -100.9417531 Eh     change       -0.5592329E+00 Eh
 * total energy  :  -101.6456353 Eh     change       -0.7038822E+00 Eh
 * total energy  :   -99.2053089 Eh     change        0.2440326E+01 Eh
 * total energy  :  -101.7962563 Eh     change       -0.2590947E+01 Eh
 * total energy  :  -101.8367305 Eh     change       -0.4047421E-01 Eh
 * total energy  :  -101.8831824 Eh     change       -0.4645188E-01 Eh
 * total energy  :  -101.9068756 Eh     change       -0.2369315E-01 Eh
 * total energy  :  -101.9204697 Eh     change       -0.1359414E-01 Eh
 * total energy  :  -102.0024742 Eh     change       -0.1013615E-03 Eh
 * total energy  :  -102.0025696 Eh     change       -0.9536176E-04 Eh
 * total energy  :  -102.0026463 Eh     change       -0.7670612E-04 Eh
 * total energy  :  -102.0027519 Eh     change       -0.1055622E-03 Eh
 * total energy  :  -102.0028111 Eh     change       -0.5928829E-04 Eh
 * total energy  :  -102.0028918 Eh     change       -0.8065630E-04 Eh
 * total energy  :  -102.0029208 Eh     change       -0.2903787E-04 Eh
 * total energy  :  -102.0029327 Eh     change       -0.1187300E-04 Eh
 * total energy  :  -102.0029493 Eh     change       -0.1662176E-04 Eh
   *** GEOMETRY OPTIMIZATION CONVERGED AFTER 96 ITERATIONS ***

 final structure:
================
72
 xtb: 6.6.1 (8d0f1dd)
N           -1.58793112961997        3.09742461108660        1.45355200949266
C           -1.66386562510069        2.11599849030880        0.68206742301626
C           -2.87704588599993        1.77459435299956       -0.13927347290719
C           -3.40282819173915        0.40859536113545        0.27008083018971
C           -4.36888948915787       -0.22541110926845       -0.51341472363723
C           -4.88602991880531       -1.46219766304812       -0.16689906422444
O           -5.82186983345810       -2.13860859603491       -0.86533937078911
C           -6.41168256021906       -1.53310554757446       -1.99138789470034
C           -4.42115815609652       -2.11065718406045        1.00890360578454
O           -4.96700091126268       -3.31800226746400        1.26002844054628
C           -4.60796162568146       -4.00024870796263        2.43840622924801
C           -3.47291399201774       -1.47036725010044        1.79026952670752
C           -2.97363064288522       -0.22574208546986        1.42597357617476
C           -2.40295409012942        1.74554698309960       -1.61768518265631
C           -1.57524193029687        0.51010100571421       -2.02328782128602
C           -0.18554479231591        0.54709178962822       -1.49972680448349
N            0.44018313328906       -0.43489469575969       -0.85296815045913
C            1.71465812005118       -0.37534649861301       -0.46056921865256
C            2.59640419406081        0.78984469308037       -0.75691818493474
C            4.02107814737425        0.57360701592791       -0.33734621735457
C            4.67842118308124        1.71100437177223        0.39638809569938
C            6.10864924236499        1.41061325932126        0.75351337369836
C            6.73571907872299        0.24974046431771        0.44650724655216
O            8.01206098248263       -0.06832174179044        0.74202048624746
C            8.81044169478788        0.88119439422272        1.41130657612512
C            6.02558450487528       -0.78636978992240       -0.26289123610151
O            6.73392134150565       -1.88985620640072       -0.50888386216530
C            6.14170303836798       -2.97563200081974       -1.18318214756162
C            4.68816583213453       -0.57601167990490       -0.63442756465333
C           -0.30193862714779       -1.64167264416815       -0.52338382592598
C           -4.03686075906983        2.80196914552097        0.02056282215524
C           -4.56751525882669        2.82695624899170        1.45214340851362
C           -3.65522281493139        4.21471333201193       -0.41233477811532
H           -4.72912573675477        0.26293448340756       -1.40327922895707
H           -6.90298195886997       -0.59136735886446       -1.72856894491664
H           -7.15791322020854       -2.24121489389249       -2.34618271860883
H           -5.67828343260825       -1.35522579184772       -2.78490555809032
H           -4.86101526336268       -3.41998132459718        3.33047023071778
H           -5.18752325136778       -4.92106554863922        2.43071461024162
H           -3.54112266252646       -4.24455846065539        2.45188423158146
H           -3.11899570964529       -1.92714591419475        2.70017340546998
H           -2.25982666779562        0.25513703322681        2.07703070951842
H           -3.28183462226901        1.78773961297879       -2.26076468098520
H           -1.81281681932810        2.64217114315667       -1.81152859582103
H           -2.10427893036427       -0.39317455017419       -1.72829381378583
H           -1.52415268952265        0.52041322781075       -3.11952605044244
H           -0.82506162234793        1.42703571182139        0.49225058011026
H            0.39094164632048        1.42311197481262       -1.74220181758236
H            2.10297757197212       -1.19414534636690        0.11485468809937
H            4.28953875734205        1.92566687686657        0.99307606267476
H            2.20905340410934        1.69653122942254       -0.27218082563316
H            2.57838740600165        0.98881653687073       -1.83982494346074
H            4.72606851328972        2.54946151882388       -0.34110989821337
H            6.62066509554859        2.19426220615910        1.28810064237474
H            8.40612464301846        1.11696103221258        2.39947960617469
H            8.90998981279699        1.80018833950864        0.82770682608651
H            9.78740780571903        0.41571937435618        1.52156140331842
H            6.91361759865230       -3.74096918566957       -1.23682256497137
H            5.28121980702586       -3.36709959450061       -0.63320023112351
H            5.83473669973636       -2.69929605676392       -2.19611410601817
H            4.17134287873668       -1.34914789907632       -1.18254247811650
H           -0.60886280779598       -2.15497072467696       -1.43492670159128
H           -1.18914639769749       -1.39335952905519        0.06283993137986
H            0.32531983433150       -2.31285818159307        0.05857555436600
H           -4.84757913875704        2.45567206158936       -0.63090601771305
H           -3.79942982693819        3.18993755507229        2.12743624494430
H           -4.88179639849652        1.83656315437329        1.77256908080042
H           -5.42376657340977        3.49347649814743        1.51209610630890
H           -2.82366284618593        4.57826760782546        0.18313962045497
H           -3.38998338329980        4.25880758844810       -1.46514599864721
H           -4.50260621784023        4.87675672323820       -0.25408076193379
H           -0.70801395853232        3.24753854224176        1.93760711500843

          :  Hamiltonian                  GFN2-xTB          :
         :: total energy            -102.002949339714 Eh    ::
         :: gradient norm              0.001639533104 Eh/a0 ::
         :: HOMO-LUMO gap              0.903036785548 eV    ::
         :: SCC energy              -100.747548956253 Eh    ::
         :: -> dispersion             -0.075417310748 Eh    ::
         :: repulsion energy           1.556629308020 Eh    ::

    * Orbital Energies and Occupations

         #    Occupation            Energy/Eh            Energy/eV
      -------------------------------------------------------------
         1        2.0000           -0.8239680             -22.4213
       ...           ...                  ...                  ...
        78        1.9988           -0.5304438             -14.4341
        79        1.9982           -0.5235678             -14.2470
        80        1.9981           -0.5233967             -14.2423
        81        1.9976           -0.5192683             -14.1300
        82        1.9973           -0.5175748             -14.0839
        83        1.9956           -0.5096288             -13.8677
        84        1.9950           -0.5076312             -13.8133
        85        1.9937           -0.5040638             -13.7163
        86        1.9800           -0.4856682             -13.2157
        87        1.9721           -0.4803494             -13.0710
        88        1.9353           -0.4667477             -12.7009
        89        1.8700           -0.4551694             -12.3858
        90        1.5898           -0.4343998             -11.8206 (HOMO)
        91        0.6456           -0.4012138             -10.9176 (LUMO)
        92        0.0175           -0.3380698              -9.1993
        93        0.0114           -0.3311549              -9.0112
        94        0.0048           -0.3176134              -8.6427
        95        0.0034           -0.3118720              -8.4865
        96        0.0028           -0.3089480              -8.4069
        97        0.0000           -0.2289583              -6.2303
        98        0.0000           -0.1862573              -5.0683
        99                         -0.1116190              -3.0373
       100                         -0.0739083              -2.0111
       101                         -0.0649873              -1.7684
       ...                                ...                  ...
       171                          1.4027444              38.1706
      -------------------------------------------------------------
                  HL-Gap            0.0331860 Eh            0.9030 eV

     #   Z          covCN         q      C6AA      α(0)
     1   7 N        1.774    -0.274    27.937     7.827
     2   6 C        2.827     0.101    25.744     8.314
     3   6 C        3.907     0.007    20.406     6.421
     4   6 C        2.974     0.003    27.947     8.671
     5   6 C        2.921    -0.079    29.978     8.979
     6   6 C        2.862     0.129    25.170     8.223
     7   8 O        1.706    -0.231    17.829     5.701
     8   6 C        3.644     0.028    20.439     6.498
     9   6 C        2.864     0.128    25.192     8.227
    10   8 O        1.706    -0.230    17.808     5.697
    11   6 C        3.645     0.027    20.448     6.499
    12   6 C        2.914    -0.075    29.867     8.962
    13   6 C        2.921    -0.053    29.328     8.881
    14   6 C        3.811    -0.064    21.716     6.633
    15   6 C        3.801    -0.067    21.778     6.644
    16   6 C        2.863    -0.046    29.131     8.847
    17   7 N        2.730     0.077    19.909     6.627
    18   6 C        2.869    -0.057    29.414     8.890
    19   6 C        3.808    -0.065    21.733     6.636
    20   6 C        2.954     0.003    27.963     8.673
    21   6 C        3.812    -0.099    22.388     6.735
    22   6 C        2.900    -0.084    30.112     8.997
    23   6 C        2.849     0.134    25.062     8.205
    24   8 O        1.706    -0.234    17.881     5.709
    25   6 C        3.646     0.024    20.506     6.507
    26   6 C        2.862     0.137    25.013     8.198
    27   8 O        1.706    -0.196    17.274     5.612
    28   6 C        3.645     0.021    20.550     6.515
    29   6 C        2.901    -0.075    29.861     8.960
    30   6 C        3.718    -0.075    22.056     6.708
    31   6 C        3.853    -0.007    20.673     6.467
    32   6 C        3.756    -0.117    22.801     6.808
    33   6 C        3.755    -0.119    22.829     6.813
    34   1 H        0.926     0.053     2.285     2.364
    35   1 H        0.924     0.053     2.278     2.360
    36   1 H        0.925     0.080     1.977     2.199
    37   1 H        0.924     0.047     2.355     2.400
    38   1 H        0.924     0.055     2.264     2.353
    39   1 H        0.925     0.080     1.976     2.198
    40   1 H        0.924     0.048     2.351     2.398
    41   1 H        0.926     0.051     2.304     2.374
    42   1 H        0.926     0.039     2.461     2.453
    43   1 H        0.925     0.055     2.256     2.349
    44   1 H        0.924     0.051     2.313     2.378
    45   1 H        0.925     0.055     2.256     2.349
    46   1 H        0.924     0.062     2.171     2.304
    47   1 H        0.923     0.007     2.939     2.681
    48   1 H        0.926     0.053     2.282     2.362
    49   1 H        0.926     0.051     2.302     2.373
    50   1 H        0.931     0.132     1.523     1.930
    51   1 H        0.923     0.059     2.208     2.324
    52   1 H        0.923     0.072     2.065     2.247
    53   1 H        0.920     0.084     1.938     2.177
    54   1 H        0.926     0.061     2.183     2.311
    55   1 H        0.924     0.053     2.287     2.365
    56   1 H        0.924     0.053     2.283     2.363
    57   1 H        0.925     0.083     1.950     2.184
    58   1 H        0.925     0.088     1.897     2.154
    59   1 H        0.924     0.056     2.244     2.343
    60   1 H        0.924     0.060     2.200     2.320
    61   1 H        0.926     0.057     2.239     2.340
    62   1 H        0.924     0.080     1.975     2.197
    63   1 H        0.924     0.084     1.943     2.180
    64   1 H        0.925     0.078     2.004     2.214
    65   1 H        0.924     0.036     2.503     2.474
    66   1 H        0.925     0.066     2.125     2.279
    67   1 H        0.925     0.034     2.528     2.486
    68   1 H        0.925     0.050     2.325     2.384
    69   1 H        0.925     0.063     2.168     2.303
    70   1 H        0.925     0.035     2.516     2.481
    71   1 H        0.925     0.053     2.287     2.365
    72   1 H        0.860     0.151     1.393     1.849

Wiberg/Mayer (AO) data.
largest (>0.10) Wiberg bond orders for each atom

     #   Z sym  total        # sym  WBO       # sym  WBO       # sym  WBO
 ---------------------------------------------------------------------------
     1   7 N    3.018 --     2 C    1.950    72 H    0.944
     2   6 C    3.933 --     1 N    1.950     3 C    0.995    47 H    0.917
     3   6 C    3.974 --     2 C    0.995     4 C    0.973    14 C    0.954
                            31 C    0.943
     4   6 C    3.949 --    13 C    1.412     5 C    1.368     3 C    0.973
     5   6 C    3.962 --     6 C    1.401     4 C    1.368    34 H    0.958
     6   6 C    3.905 --     5 C    1.401     9 C    1.223     7 O    1.098
     7   8 O    2.252 --     6 C    1.098     8 C    0.978
     8   6 C    3.933 --     7 O    0.978    36 H    0.977    35 H    0.974
                            37 H    0.973
     9   6 C    3.900 --    12 C    1.392     6 C    1.223    10 O    1.100
    10   8 O    2.251 --     9 C    1.100    11 C    0.978
    11   6 C    3.932 --    10 O    0.978    39 H    0.977    40 H    0.974
                            38 H    0.973
    12   6 C    3.962 --    13 C    1.402     9 C    1.392    41 H    0.964
    13   6 C    3.953 --     4 C    1.412    12 C    1.402    42 H    0.963
    14   6 C    3.974 --    15 C    0.982    44 H    0.973    43 H    0.968
                             3 C    0.954
    15   6 C    3.987 --    16 C    1.050    14 C    0.982    45 H    0.964
                            46 H    0.942
    16   6 C    3.673 --    17 N    1.336    15 C    1.050    48 H    0.959
                            18 C    0.219
    17   7 N    3.724 --    16 C    1.336    18 C    1.327    30 C    0.984
    18   6 C    3.629 --    17 N    1.327    19 C    1.032    49 H    0.963
                            16 C    0.219
    19   6 C    3.991 --    18 C    1.032    20 C    1.021    51 H    0.945
                            52 H    0.924
    20   6 C    3.733 --    29 C    1.572    21 C    1.030    19 C    1.021
    21   6 C    3.971 --    22 C    1.034    20 C    1.030    50 H    0.940
                            53 H    0.899
    22   6 C    3.794 --    23 C    1.582    21 C    1.034    54 H    0.963
                            24 O    0.107
    23   6 C    3.936 --    22 C    1.582    26 C    1.131    24 O    1.096
    24   8 O    2.262 --    23 C    1.096    25 C    0.976    22 C    0.107
    25   6 C    3.930 --    57 H    0.977    24 O    0.976    56 H    0.974
                            55 H    0.974
    26   6 C    3.679 --    29 C    1.283    27 O    1.151    23 C    1.131
    27   8 O    2.269 --    26 C    1.151    28 C    0.972
    28   6 C    3.927 --    58 H    0.976    59 H    0.972    27 O    0.972
                            60 H    0.972
    29   6 C    3.977 --    20 C    1.572    26 C    1.283    61 H    0.957
    30   6 C    3.954 --    17 N    0.984    64 H    0.977    62 H    0.970
                            63 H    0.962
    31   6 C    3.972 --    33 C    1.009    32 C    1.008    65 H    0.960
                             3 C    0.943
    32   6 C    3.979 --    31 C    1.008    67 H    0.982    68 H    0.982
                            66 H    0.974
    33   6 C    3.981 --    31 C    1.009    70 H    0.983    71 H    0.980
                            69 H    0.975
    34   1 H    0.996 --     5 C    0.958
    35   1 H    0.993 --     8 C    0.974
    36   1 H    0.993 --     8 C    0.977
    37   1 H    0.994 --     8 C    0.973
    38   1 H    0.993 --    11 C    0.973
    39   1 H    0.993 --    11 C    0.977
    40   1 H    0.993 --    11 C    0.974
    41   1 H    0.996 --    12 C    0.964
    42   1 H    0.998 --    13 C    0.963
    43   1 H    0.995 --    14 C    0.968
    44   1 H    0.996 --    14 C    0.973
    45   1 H    0.996 --    15 C    0.964
    46   1 H    0.978 --    15 C    0.942
    47   1 H    0.983 --     2 C    0.917
    48   1 H    0.997 --    16 C    0.959
    49   1 H    0.997 --    18 C    0.963
    50   1 H    0.969 --    21 C    0.940
    51   1 H    0.980 --    19 C    0.945
    52   1 H    0.970 --    19 C    0.924
    53   1 H    0.947 --    21 C    0.899
    54   1 H    0.995 --    22 C    0.963
    55   1 H    0.995 --    25 C    0.974
    56   1 H    0.995 --    25 C    0.974
    57   1 H    0.993 --    25 C    0.977
    58   1 H    0.992 --    28 C    0.976
    59   1 H    0.991 --    28 C    0.972
    60   1 H    0.990 --    28 C    0.972
    61   1 H    0.996 --    29 C    0.957
    62   1 H    0.993 --    30 C    0.970
    63   1 H    0.992 --    30 C    0.962
    64   1 H    0.994 --    30 C    0.977
    65   1 H    0.992 --    31 C    0.960
    66   1 H    0.991 --    32 C    0.974
    67   1 H    0.997 --    32 C    0.982
    68   1 H    0.994 --    32 C    0.982
    69   1 H    0.992 --    33 C    0.975
    70   1 H    0.997 --    33 C    0.983
    71   1 H    0.994 --    33 C    0.980
    72   1 H    0.971 --     1 N    0.944
 ---------------------------------------------------------------------------

molecular dipole:
                 x           y           z       tot (Debye)
 q only:        1.791      -0.350      -0.611
   full:        2.054      -0.437      -0.713       5.638

           -------------------------------------------------
          | TOTAL ENERGY             -102.002949339714 Eh   |
          | GRADIENT NORM               0.001639533104 Eh/α |
          | HOMO-LUMO GAP               0.903036785548 eV   |
           -------------------------------------------------

 * finished run on 2024/04/06 at 11:17:06.767
