   * xtb version 6.6.1 (8d0f1dd) compiled by 'conda@1efc2f54142f' on 2023-08-01
          program call               : xtb xtbopt.xyz --opt crude --input .xc2 --gfn2

   ID    Z sym.   atoms
    1    7 N      1, 17
    2    6 C      2-6, 8, 9, 11-16, 18-23, 25, 26, 28-33
    3    8 O      7, 10, 24, 27
    4    1 H      34-72
########################################################################
[WARNING] Please study the warnings concerning your input carefully
-1- readin_getIntValue: could not parse ''
########################################################################

          :  Hamiltonian                  GFN2-xTB          :
 * total energy  :   -99.1895590 Eh     change       -0.2188472E-11 Eh
 * total energy  :   -99.3509146 Eh     change       -0.1613556E+00 Eh
 * total energy  :   -99.3526715 Eh     change       -0.1756900E-02 Eh
 * total energy  :   -99.3535953 Eh     change       -0.9237963E-03 Eh
 * total energy  :   -99.3537911 Eh     change       -0.1957693E-03 Eh
   *** GEOMETRY OPTIMIZATION CONVERGED AFTER 5 ITERATIONS ***

 final structure:
================
72
 xtb: 6.6.1 (8d0f1dd)
N           -1.59273395532178        3.10086155827282        1.45490010794158
C           -1.66632042667622        2.11901474134584        0.68369795828273
C           -2.87827729681034        1.77556228565035       -0.13888007505712
C           -3.40298370324470        0.40913031181807        0.27054081029502
C           -4.36780724909191       -0.22628611747733       -0.51359353827311
C           -4.88495157101690       -1.46279627846213       -0.16605679737258
O           -5.81977989945361       -2.14055185055648       -0.86479241899338
C           -6.40917842779818       -1.53647272779603       -1.99191917157282
C           -4.42126067592652       -2.10956863444479        1.01120483549241
O           -4.96760104171447       -3.31649711939890        1.26336150486311
C           -4.60953682622843       -3.99715634989078        2.44300846969805
C           -3.47373764013748       -1.46830570742432        1.79274590349167
C           -2.97458883067606       -0.22387856526853        1.42754732046677
C           -2.40143538915985        1.74691152625305       -1.61643878549484
C           -1.57229656132197        0.51180180067613       -2.02067367887615
C           -0.18212112922932        0.55017231991278       -1.49781403322749
N            0.44607597364351       -0.43315818065544       -0.85545399628607
C            1.72281727033055       -0.37603902775633       -0.47046381016617
C            2.60520913930268        0.78705481835924       -0.77351256484883
C            4.03138195576983        0.57303285511532       -0.35917611423467
C            4.71246596511387        1.70021340883080        0.33650376145811
C            6.12284311682686        1.41542249602832        0.71872994690503
C            6.74555903144354        0.24447446025280        0.42990580106516
O            8.01515239734204       -0.08264222791940        0.74650798924848
C            8.81264361334214        0.86923298579830        1.41424413565392
C            6.03356053321654       -0.79268064610516       -0.27525433834558
O            6.74122616263293       -1.89923993335906       -0.51774955467771
C            6.14920353782417       -2.98549956036156       -1.19269837861761
C            4.69418367539222       -0.58608281292746       -0.64138572586408
C           -0.29633032793999       -1.63922894739835       -0.52397449035644
C           -4.03994987403245        2.80146933845665        0.01882341987029
C           -4.57233084690692        2.82708676673952        1.44979972474152
C           -3.66037752257100        4.21475993271382       -0.41476206223047
H           -4.72686593892636        0.26072856801341       -1.40482183803544
H           -6.89882285738489       -0.59329374735061       -1.73127130787919
H           -7.15671887089473       -2.24429131961750       -2.34460248854493
H           -5.67571122590031       -1.36196960905131       -2.78592589404587
H           -4.86149524310232       -3.41478188197797        3.33423249816180
H           -5.19088394904715       -4.91705925920077        2.43702325942301
H           -3.54280782655263       -4.24323092317596        2.45664751148396
H           -3.12049074362019       -1.92393193874706        2.70352177051982
H           -2.26146396311361        0.25801975120036        2.07877121928939
H           -3.27899404808513        1.78860374215675       -2.26116749113233
H           -1.81148510568138        2.64377147292579       -1.80904165500216
H           -2.10067158983189       -0.39146682896684       -1.72469373078213
H           -1.52154171081393        0.52114750649301       -3.11716594367002
H           -0.82606275485116        1.43137019084333        0.49404827403732
H            0.39319860986935        1.42713796912316       -1.73950042497912
H            2.11086446368464       -1.19327242648614        0.10651860580219
H            4.14520252995011        1.99568075565842        1.22302755861525
H            2.22363574973395        1.69461663526533       -0.28684193632587
H            2.57981031699030        0.98537239361525       -1.85626675238567
H            4.69509414121679        2.58683588638904       -0.31994565319167
H            6.63460877518823        2.20305111531558        1.24569949707888
H            8.40382609725625        1.11075224443750        2.39998929663194
H            8.91584913554767        1.78580229106017        0.82598162312484
H            9.78837370804402        0.40261377597332        1.53207455213807
H            6.92219982325609       -3.74925069594980       -1.25180004227460
H            5.29236603219951       -3.38119856673727       -0.63901018852123
H            5.83745817707162       -2.70673337541437       -2.20357472004496
H            4.17288752480175       -1.36978286495243       -1.17013000615971
H           -0.60768804470391       -2.15050404386380       -1.43446146189153
H           -1.18062523792833       -1.39062755324173        0.06577305340376
H            0.33183399135687       -2.31184340155819        0.05418028791333
H           -4.84947300148205        2.45323689928286       -0.63326956562445
H           -3.80577604401011        3.19272821799230        2.12561144045317
H           -4.88474883707594        1.83634604500707        1.77124628799618
H           -5.43019673739202        3.49182635012115        1.50796235235091
H           -2.83057009147614        4.58045420404806        0.18183235508808
H           -3.39366375672817        4.25876073684164       -1.46727154122042
H           -4.50934718952932        4.87524386510773       -0.25846674288757
H           -0.71331188794469        3.25316042297833        1.93943062867070

          :  Hamiltonian                  GFN2-xTB          :
         :: total energy             -99.353791077509 Eh    ::
         :: gradient norm              0.007573318665 Eh/a0 ::
         :: HOMO-LUMO gap              0.894991955439 eV    ::
         :: SCC energy              -100.722313562134 Eh    ::
         :: -> dispersion             -0.075353653451 Eh    ::
         :: repulsion energy           1.367156938294 Eh    ::

    * Orbital Energies and Occupations

         #    Occupation            Energy/Eh            Energy/eV
      -------------------------------------------------------------
         1        2.0000           -0.8233809             -22.4053
       ...           ...                  ...                  ...
        78        1.9988           -0.5303976             -14.4329
        79        1.9981           -0.5236721             -14.2498
        80        1.9981           -0.5234996             -14.2451
        81        1.9974           -0.5183283             -14.1044
        82        1.9973           -0.5176946             -14.0872
        83        1.9955           -0.5097350             -13.8706
        84        1.9949           -0.5077378             -13.8162
        85        1.9937           -0.5041761             -13.7193
        86        1.9799           -0.4857840             -13.2189
        87        1.9704           -0.4795861             -13.0502
        88        1.9351           -0.4668930             -12.7048
        89        1.8695           -0.4552852             -12.3889
        90        1.5877           -0.4344839             -11.8229 (HOMO)
        91        0.6509           -0.4015936             -10.9279 (LUMO)
        92        0.0174           -0.3381677              -9.2020
        93        0.0113           -0.3312793              -9.0146
        94        0.0047           -0.3173830              -8.6364
        95        0.0034           -0.3120103              -8.4902
        96        0.0028           -0.3090848              -8.4106
        97        0.0000           -0.2301459              -6.2626
        98        0.0000           -0.1864137              -5.0726
        99                         -0.1115710              -3.0360
       100                         -0.0734518              -1.9987
       101                         -0.0637675              -1.7352
       ...                                ...                  ...
       171                          0.5766505              15.6915
      -------------------------------------------------------------
                  HL-Gap            0.0328903 Eh            0.8950 eV

     #   Z          covCN         q      C6AA      α(0)
     1   7 N        1.774    -0.274    27.932     7.826
     2   6 C        2.827     0.102    25.742     8.314
     3   6 C        3.907     0.007    20.407     6.421
     4   6 C        2.974     0.003    27.946     8.671
     5   6 C        2.921    -0.079    29.977     8.979
     6   6 C        2.862     0.129    25.169     8.223
     7   8 O        1.706    -0.231    17.829     5.701
     8   6 C        3.644     0.028    20.440     6.498
     9   6 C        2.864     0.128    25.191     8.227
    10   8 O        1.706    -0.230    17.806     5.697
    11   6 C        3.645     0.027    20.449     6.499
    12   6 C        2.913    -0.075    29.866     8.961
    13   6 C        2.921    -0.053    29.327     8.881
    14   6 C        3.811    -0.064    21.717     6.633
    15   6 C        3.801    -0.067    21.779     6.644
    16   6 C        2.863    -0.046    29.132     8.847
    17   7 N        2.730     0.077    19.904     6.626
    18   6 C        2.868    -0.057    29.401     8.888
    19   6 C        3.808    -0.065    21.732     6.636
    20   6 C        2.955     0.008    27.851     8.656
    21   6 C        3.812    -0.067    21.768     6.641
    22   6 C        2.901    -0.079    29.985     8.978
    23   6 C        2.850     0.135    25.053     8.203
    24   8 O        1.706    -0.233    17.870     5.707
    25   6 C        3.646     0.024    20.506     6.507
    26   6 C        2.861     0.137    25.008     8.197
    27   8 O        1.706    -0.197    17.292     5.614
    28   6 C        3.644     0.022    20.549     6.516
    29   6 C        2.902    -0.074    29.847     8.958
    30   6 C        3.719    -0.075    22.058     6.709
    31   6 C        3.853    -0.007    20.673     6.467
    32   6 C        3.756    -0.117    22.800     6.808
    33   6 C        3.755    -0.119    22.829     6.813
    34   1 H        0.926     0.053     2.285     2.364
    35   1 H        0.924     0.053     2.278     2.360
    36   1 H        0.925     0.080     1.976     2.198
    37   1 H        0.924     0.047     2.354     2.399
    38   1 H        0.924     0.055     2.263     2.353
    39   1 H        0.925     0.080     1.976     2.198
    40   1 H        0.924     0.048     2.350     2.397
    41   1 H        0.926     0.051     2.304     2.373
    42   1 H        0.926     0.039     2.461     2.453
    43   1 H        0.925     0.055     2.255     2.348
    44   1 H        0.924     0.051     2.312     2.378
    45   1 H        0.925     0.055     2.255     2.348
    46   1 H        0.924     0.063     2.170     2.304
    47   1 H        0.923     0.007     2.941     2.682
    48   1 H        0.926     0.053     2.281     2.362
    49   1 H        0.926     0.052     2.297     2.370
    50   1 H        0.924     0.082     1.959     2.189
    51   1 H        0.923     0.060     2.204     2.322
    52   1 H        0.923     0.072     2.061     2.245
    53   1 H        0.923     0.085     1.928     2.172
    54   1 H        0.926     0.062     2.170     2.304
    55   1 H        0.924     0.053     2.287     2.365
    56   1 H        0.924     0.053     2.282     2.363
    57   1 H        0.925     0.083     1.948     2.183
    58   1 H        0.925     0.088     1.897     2.154
    59   1 H        0.924     0.056     2.246     2.344
    60   1 H        0.924     0.060     2.202     2.321
    61   1 H        0.926     0.057     2.233     2.337
    62   1 H        0.925     0.081     1.972     2.196
    63   1 H        0.924     0.084     1.942     2.179
    64   1 H        0.925     0.078     2.002     2.213
    65   1 H        0.924     0.036     2.502     2.474
    66   1 H        0.925     0.066     2.124     2.279
    67   1 H        0.925     0.034     2.528     2.486
    68   1 H        0.925     0.050     2.324     2.384
    69   1 H        0.925     0.063     2.169     2.303
    70   1 H        0.925     0.035     2.516     2.480
    71   1 H        0.925     0.053     2.287     2.365
    72   1 H        0.860     0.151     1.393     1.849

Wiberg/Mayer (AO) data.
largest (>0.10) Wiberg bond orders for each atom

     #   Z sym  total        # sym  WBO       # sym  WBO       # sym  WBO
 ---------------------------------------------------------------------------
     1   7 N    3.018 --     2 C    1.950    72 H    0.944
     2   6 C    3.933 --     1 N    1.950     3 C    0.995    47 H    0.917
     3   6 C    3.974 --     2 C    0.995     4 C    0.973    14 C    0.954
                            31 C    0.943
     4   6 C    3.949 --    13 C    1.412     5 C    1.368     3 C    0.973
     5   6 C    3.962 --     6 C    1.401     4 C    1.368    34 H    0.958
     6   6 C    3.905 --     5 C    1.401     9 C    1.223     7 O    1.098
     7   8 O    2.252 --     6 C    1.098     8 C    0.978
     8   6 C    3.933 --     7 O    0.978    36 H    0.977    35 H    0.974
                            37 H    0.973
     9   6 C    3.900 --    12 C    1.392     6 C    1.223    10 O    1.100
    10   8 O    2.251 --     9 C    1.100    11 C    0.978
    11   6 C    3.932 --    10 O    0.978    39 H    0.977    40 H    0.974
                            38 H    0.973
    12   6 C    3.962 --    13 C    1.402     9 C    1.392    41 H    0.964
    13   6 C    3.953 --     4 C    1.412    12 C    1.402    42 H    0.963
    14   6 C    3.974 --    15 C    0.982    44 H    0.973    43 H    0.968
                             3 C    0.954
    15   6 C    3.987 --    16 C    1.050    14 C    0.982    45 H    0.964
                            46 H    0.942
    16   6 C    3.672 --    17 N    1.336    15 C    1.050    48 H    0.959
                            18 C    0.219
    17   7 N    3.724 --    16 C    1.336    18 C    1.327    30 C    0.984
    18   6 C    3.629 --    17 N    1.327    19 C    1.032    49 H    0.963
                            16 C    0.219
    19   6 C    3.991 --    18 C    1.032    20 C    1.020    51 H    0.945
                            52 H    0.924
    20   6 C    3.734 --    29 C    1.565    21 C    1.042    19 C    1.020
    21   6 C    3.985 --    22 C    1.046    20 C    1.042    50 H    0.922
                            53 H    0.912
    22   6 C    3.795 --    23 C    1.576    21 C    1.046    54 H    0.963
                            24 O    0.107
    23   6 C    3.936 --    22 C    1.576    26 C    1.133    24 O    1.096
    24   8 O    2.262 --    23 C    1.096    25 C    0.975    22 C    0.107
    25   6 C    3.930 --    57 H    0.977    24 O    0.975    56 H    0.974
                            55 H    0.974
    26   6 C    3.683 --    29 C    1.285    27 O    1.149    23 C    1.133
    27   8 O    2.268 --    26 C    1.149    28 C    0.972
    28   6 C    3.927 --    58 H    0.976    59 H    0.972    27 O    0.972
                            60 H    0.972
    29   6 C    3.976 --    20 C    1.565    26 C    1.285    61 H    0.957
    30   6 C    3.954 --    17 N    0.984    64 H    0.977    62 H    0.970
                            63 H    0.962
    31   6 C    3.972 --    33 C    1.009    32 C    1.008    65 H    0.960
                             3 C    0.943
    32   6 C    3.979 --    31 C    1.008    67 H    0.982    68 H    0.982
                            66 H    0.974
    33   6 C    3.981 --    31 C    1.009    70 H    0.983    71 H    0.980
                            69 H    0.975
    34   1 H    0.996 --     5 C    0.958
    35   1 H    0.993 --     8 C    0.974
    36   1 H    0.993 --     8 C    0.977
    37   1 H    0.994 --     8 C    0.973
    38   1 H    0.993 --    11 C    0.973
    39   1 H    0.993 --    11 C    0.977
    40   1 H    0.993 --    11 C    0.974
    41   1 H    0.996 --    12 C    0.964
    42   1 H    0.998 --    13 C    0.963
    43   1 H    0.995 --    14 C    0.968
    44   1 H    0.996 --    14 C    0.973
    45   1 H    0.996 --    15 C    0.964
    46   1 H    0.978 --    15 C    0.942
    47   1 H    0.983 --     2 C    0.917
    48   1 H    0.997 --    16 C    0.959
    49   1 H    0.997 --    18 C    0.963
    50   1 H    0.959 --    21 C    0.922
    51   1 H    0.980 --    19 C    0.945
    52   1 H    0.970 --    19 C    0.924
    53   1 H    0.952 --    21 C    0.912
    54   1 H    0.995 --    22 C    0.963
    55   1 H    0.995 --    25 C    0.974
    56   1 H    0.995 --    25 C    0.974
    57   1 H    0.992 --    25 C    0.977
    58   1 H    0.992 --    28 C    0.976
    59   1 H    0.991 --    28 C    0.972
    60   1 H    0.990 --    28 C    0.972
    61   1 H    0.996 --    29 C    0.957
    62   1 H    0.993 --    30 C    0.970
    63   1 H    0.992 --    30 C    0.962
    64   1 H    0.994 --    30 C    0.977
    65   1 H    0.992 --    31 C    0.960
    66   1 H    0.991 --    32 C    0.974
    67   1 H    0.997 --    32 C    0.982
    68   1 H    0.994 --    32 C    0.982
    69   1 H    0.992 --    33 C    0.975
    70   1 H    0.997 --    33 C    0.983
    71   1 H    0.994 --    33 C    0.980
    72   1 H    0.971 --     1 N    0.944
 ---------------------------------------------------------------------------

molecular dipole:
                 x           y           z       tot (Debye)
 q only:        1.785      -0.377      -0.635
   full:        2.031      -0.436      -0.711       5.581

           -------------------------------------------------
          | TOTAL ENERGY              -99.353791077509 Eh   |
          | GRADIENT NORM               0.007573318665 Eh/α |
          | HOMO-LUMO GAP               0.894991955439 eV   |
           -------------------------------------------------

 * finished run on 2024/04/06 at 11:17:07.893
