   * xtb version 6.6.1 (8d0f1dd) compiled by 'conda@1efc2f54142f' on 2023-08-01
          program call               : xtb xtbopt.xyz --opt crude --input .xc2 --gfn2

   ID    Z sym.   atoms
    1    6 C      1, 3, 5-7, 10, 11, 14
    2    7 N      2, 4, 9, 13
    3    8 O      8, 12
    4    1 H      15-25

          :  Hamiltonian                  GFN2-xTB          :
 * total energy  :   -42.1362824 Eh     change       -0.6922818E-10 Eh
   *** GEOMETRY OPTIMIZATION CONVERGED AFTER 1 ITERATIONS ***

 final structure:
================
25
 xtb: 6.6.1 (8d0f1dd)
C            3.95617499925998        3.36758847008800        0.12175446254508
N            2.17956903786610       -1.09446290895275       -0.03815794860138
C            2.07430733313669       -2.38802330372707       -0.07843806129486
N            0.76722769513282       -2.79930087333889       -0.09216651016547
C            0.01429686131720       -1.67134737286871       -0.05968003333206
C            0.91881528936254       -0.60098832398441       -0.02481668253646
C            0.44685704685201        0.76405340230583        0.02025085007311
O            1.12960563719435        1.76362980827402        0.04549005702147
N           -0.94934356993641        0.82921384154255        0.03295466537644
C           -1.56645818584009        2.14549517619687        0.08613028065030
C           -1.84880357948242       -0.22295052383633        0.00712755538483
O           -3.03790780424283       -0.04253764630311        0.03030621563988
N           -1.32107934812637       -1.52248587308126       -0.05009271489739
C           -2.23092931582672       -2.64708116593881       -0.09269400419854
H            4.35719076834827        3.70052443944027        1.05923164707875
H            4.52801993364185        3.49957442095569       -0.77662139032071
H            2.98063707689808        2.90977450473607        0.07993272851338
H            2.90301138504189       -3.06677700219363       -0.09572227003117
H           -0.77785842814076        2.89381495645821        0.05971721588135
H           -2.24055214831429        2.27197608716259       -0.76148116023668
H           -2.15105472440007        2.24485335280425        1.00158024316973
H           -2.10553475504766       -3.27388087384648        0.79074974842148
H           -2.06177115093421       -3.23779831758777       -0.99390184306316
H           -3.24563471797170       -2.25132238629251       -0.10782124438830
H            0.44164617831258       -3.75330334640200       -0.13246018877552

          :  Hamiltonian                  GFN2-xTB          :
         :: total energy             -42.136282364104 Eh    ::
         :: gradient norm              0.003219571878 Eh/a0 ::
         :: HOMO-LUMO gap              1.095597819990 eV    ::
         :: SCC energy               -42.661684913481 Eh    ::
         :: -> dispersion             -0.020637121763 Eh    ::
         :: repulsion energy           0.525344587207 Eh    ::

    * Orbital Energies and Occupations

         #    Occupation            Energy/Eh            Energy/eV
      -------------------------------------------------------------
         1        2.0000           -0.8844637             -24.0675
       ...           ...                  ...                  ...
        25        1.9996           -0.6527331             -17.7618
        26        1.9989           -0.6359527             -17.3052
        27        1.9981           -0.6278202             -17.0839
        28        1.9978           -0.6255582             -17.0223
        29        1.9973           -0.6221387             -16.9293
        30        1.9969           -0.6199250             -16.8690
        31        1.9931           -0.6073466             -16.5267
        32        1.9930           -0.6071096             -16.5203
        33        1.9739           -0.5862245             -15.9520
        34        1.9225           -0.5685639             -15.4714
        35        1.9158           -0.5671947             -15.4342
        36        1.8673           -0.5595860             -15.2271
        37        1.7101           -0.5458213             -14.8526 (HOMO)
        38        0.6338           -0.5055588             -13.7570 (LUMO)
        39        0.0021           -0.4089762             -11.1288
        40        0.0006           -0.3897892             -10.6067
        41        0.0001           -0.3600594              -9.7977
        42        0.0000           -0.2792643              -7.5992
        43                         -0.1975838              -5.3765
        44                         -0.1553340              -4.2269
        45                         -0.1310476              -3.5660
        46                         -0.0664119              -1.8072
        47                         -0.0441400              -1.2011
        48                         -0.0295284              -0.8035
       ...                                ...                  ...
        67                          0.5514585              15.0059
      -------------------------------------------------------------
                  HL-Gap            0.0402625 Eh            1.0956 eV

     #   Z          covCN         q      C6AA      α(0)
     1   6 C        2.778    -0.068    29.677     8.923
     2   7 N        1.906    -0.152    25.069     7.423
     3   6 C        3.154     0.105    25.402     8.242
     4   7 N        2.789    -0.080    22.789     7.090
     5   6 C        3.056     0.115    25.419     8.268
     6   6 C        3.202     0.024    26.890     8.449
     7   6 C        2.764     0.277    22.323     7.738
     8   8 O        0.858    -0.343    20.581     6.082
     9   7 N        2.745    -0.077    22.728     7.081
    10   6 C        3.710    -0.061    21.808     6.674
    11   6 C        2.733     0.319    21.583     7.606
    12   8 O        0.860    -0.346    20.636     6.091
    13   7 N        2.737    -0.042    22.055     6.975
    14   6 C        3.697    -0.070    22.022     6.712
    15   1 H        0.926     0.137     1.482     1.903
    16   1 H        0.926     0.137     1.484     1.905
    17   1 H        0.926     0.160     1.327     1.801
    18   1 H        0.926     0.111     1.688     2.032
    19   1 H        0.925     0.114     1.667     2.019
    20   1 H        0.924     0.108     1.718     2.050
    21   1 H        0.924     0.107     1.726     2.054
    22   1 H        0.924     0.092     1.858     2.132
    23   1 H        0.924     0.091     1.871     2.139
    24   1 H        0.925     0.128     1.553     1.949
    25   1 H        0.860     0.216     1.029     1.589

Wiberg/Mayer (AO) data.
largest (>0.10) Wiberg bond orders for each atom

     #   Z sym  total        # sym  WBO       # sym  WBO       # sym  WBO
 ---------------------------------------------------------------------------
     1   6 C    2.924 --    16 H    0.978    15 H    0.978    17 H    0.962
     2   7 N    3.001 --     3 C    1.559     6 C    1.271
     3   6 C    3.847 --     2 N    1.559     4 N    1.212    18 H    0.954
     4   7 N    3.576 --     5 C    1.224     3 C    1.212    25 H    0.924
     5   6 C    3.894 --     6 C    1.275     4 N    1.224    13 N    1.212
     6   6 C    3.834 --     5 C    1.275     2 N    1.271     7 C    1.070
     7   6 C    3.945 --     8 O    1.675     9 N    1.098     6 C    1.070
     8   8 O    1.971 --     7 C    1.675     9 N    0.127
     9   7 N    3.513 --    11 C    1.121     7 C    1.098    10 C    0.976
                             8 O    0.127    12 O    0.123
    10   6 C    3.888 --     9 N    0.976    19 H    0.964    20 H    0.953
                            21 H    0.952
    11   6 C    3.954 --    12 O    1.685     9 N    1.121    13 N    1.055
    12   8 O    1.993 --    11 C    1.685     9 N    0.123    13 N    0.108
    13   7 N    3.497 --     5 C    1.212    11 C    1.055    14 C    0.977
                            12 O    0.108
    14   6 C    3.910 --    13 N    0.977    23 H    0.963    24 H    0.962
                            22 H    0.962
    15   1 H    0.980 --     1 C    0.978
    16   1 H    0.980 --     1 C    0.978
    17   1 H    0.972 --     1 C    0.962
    18   1 H    0.985 --     3 C    0.954
    19   1 H    0.982 --    10 C    0.964
    20   1 H    0.971 --    10 C    0.953
    21   1 H    0.970 --    10 C    0.952
    22   1 H    0.978 --    14 C    0.962
    23   1 H    0.979 --    14 C    0.963
    24   1 H    0.982 --    14 C    0.962
    25   1 H    0.952 --     4 N    0.924
 ---------------------------------------------------------------------------

molecular dipole:
                 x           y           z       tot (Debye)
 q only:        1.733      -0.871      -0.029
   full:        1.551      -1.539      -0.051       5.554

           -------------------------------------------------
          | TOTAL ENERGY              -42.136282364104 Eh   |
          | GRADIENT NORM               0.003219571878 Eh/α |
          | HOMO-LUMO GAP               1.095597819990 eV   |
           -------------------------------------------------

 * finished run on 2024/06/05 at 19:58:16.552
