   * xtb version 6.6.1 (8d0f1dd) compiled by 'conda@1efc2f54142f' on 2023-08-01
          program call               : xtb xtbopt.xyz --opt crude --input .xc2 --gfn2

   ID    Z sym.   atoms
    1    6 C      1, 3, 5-7, 10, 11, 14
    2    7 N      2, 4, 9, 13
    3    8 O      8, 12
    4    1 H      15-25
########################################################################
[WARNING] Please study the warnings concerning your input carefully
-1- readin_getIntValue: could not parse ''
########################################################################

          :  Hamiltonian                  GFN2-xTB          :
 * total energy  :   -42.1431370 Eh     change       -0.8526513E-13 Eh
   *** GEOMETRY OPTIMIZATION CONVERGED AFTER 1 ITERATIONS ***

 final structure:
================
25
 xtb: 6.6.1 (8d0f1dd)
C            3.16290603624863        1.30176192026727        0.03433484765659
N            2.19304575642474        0.27729235000925        0.00860347273537
C            3.53823021192626       -0.13872433183796       -0.08539383305743
N            1.15755015996502       -2.27059374699494       -0.11831222445075
C            0.35431050561063       -1.29165075189666       -0.05043453727299
C            0.93891660969390        0.05635457924610        0.01905602879565
C            0.06123711393685        1.27592693976756        0.11032101556498
O            0.55983646814176        2.37342244427132        0.18618267170759
N           -1.27193995553037        1.01998269749429        0.08570864164918
C           -2.19983640677090        2.14213964482232        0.13472505839291
C           -1.86910586789626       -0.24391881173672        0.01059438163278
O           -3.06114367936468       -0.35428867005336       -0.01146632485708
N           -1.02088547463893       -1.34520700972482       -0.03181603555647
C           -1.65472300594748       -2.65671638967007       -0.09089538427325
H            3.28993287069144        1.82820998558439        0.97475059760550
H            3.84615697936334       -0.54399635503588       -1.04370153773936
H            3.20743212653079        1.95915412534199       -0.82760275960678
H            3.93986703892276       -0.67707199354242        0.76509661489930
H           -1.62405581931971        3.06222964485880        0.18598217986576
H           -2.82746436088442        2.13533574957657       -0.75605307598565
H           -2.84391812545267        2.04844771969792        1.00883629611643
H           -1.35836672420535       -3.25725590617356        0.77032175333367
H           -1.38371702576060       -3.16771097046396       -1.01579948732064
H           -2.73259805812601       -2.51118334052789       -0.06915785070964
H            0.75876414054066       -3.20370098167965       -0.16270889122583

          :  Hamiltonian                  GFN2-xTB          :
         :: total energy             -42.143136998986 Eh    ::
         :: gradient norm              0.005062994071 Eh/a0 ::
         :: HOMO-LUMO gap              1.471848600675 eV    ::
         :: SCC energy               -42.674966249215 Eh    ::
         :: -> dispersion             -0.021750620818 Eh    ::
         :: repulsion energy           0.531719441360 Eh    ::

    * Orbital Energies and Occupations

         #    Occupation            Energy/Eh            Energy/eV
      -------------------------------------------------------------
         1        2.0000           -0.9019451             -24.5432
       ...           ...                  ...                  ...
        25        2.0000           -0.6638401             -18.0640
        26        2.0000           -0.6575259             -17.8922
        27        2.0000           -0.6505315             -17.7019
        28        2.0000           -0.6459871             -17.5782
        29        2.0000           -0.6418872             -17.4666
        30        2.0000           -0.6339702             -17.2512
        31        2.0000           -0.6220730             -16.9275
        32        1.9999           -0.6117323             -16.6461
        33        1.9983           -0.5921071             -16.1121
        34        1.9964           -0.5860198             -15.9464
        35        1.9923           -0.5800061             -15.7828
        36        1.9736           -0.5702118             -15.5163
        37        1.9533           -0.5656277             -15.3915 (HOMO)
        38        0.0864           -0.5115383             -13.9197 (LUMO)
        39                         -0.3978063             -10.8249
        40                         -0.3890359             -10.5862
        41                         -0.3037792              -8.2663
        42                         -0.2915032              -7.9322
        43                         -0.2169715              -5.9041
        44                         -0.1732511              -4.7144
        45                         -0.1408430              -3.8325
        46                         -0.1063072              -2.8928
        47                         -0.0754647              -2.0535
        48                         -0.0518995              -1.4123
       ...                                ...                  ...
        67                          0.5743578              15.6291
      -------------------------------------------------------------
                  HL-Gap            0.0540894 Eh            1.4718 eV

     #   Z          covCN         q      C6AA      α(0)
     1   6 C        3.738    -0.020    21.019     6.542
     2   7 N        2.745     0.129    19.037     6.480
     3   6 C        3.737    -0.022    21.048     6.547
     4   7 N        1.788    -0.302    28.648     7.928
     5   6 C        2.823     0.168    24.380     8.091
     6   6 C        2.894     0.056    26.746     8.479
     7   6 C        2.774     0.270    22.439     7.758
     8   8 O        0.858    -0.351    20.719     6.103
     9   7 N        2.738    -0.071    22.613     7.063
    10   6 C        3.708    -0.063    21.863     6.683
    11   6 C        2.715     0.324    21.487     7.588
    12   8 O        0.860    -0.339    20.505     6.071
    13   7 N        2.740    -0.082    22.830     7.096
    14   6 C        3.704    -0.063    21.865     6.685
    15   1 H        0.925     0.140     1.461     1.890
    16   1 H        0.925     0.137     1.486     1.906
    17   1 H        0.925     0.139     1.467     1.894
    18   1 H        0.925     0.138     1.476     1.900
    19   1 H        0.925     0.111     1.689     2.032
    20   1 H        0.925     0.105     1.742     2.064
    21   1 H        0.925     0.105     1.739     2.062
    22   1 H        0.924     0.086     1.921     2.167
    23   1 H        0.924     0.086     1.923     2.169
    24   1 H        0.925     0.120     1.616     1.988
    25   1 H        0.860     0.200     1.106     1.648

Wiberg/Mayer (AO) data.
largest (>0.10) Wiberg bond orders for each atom

     #   Z sym  total        # sym  WBO       # sym  WBO       # sym  WBO
 ---------------------------------------------------------------------------
     1   6 C    3.886 --     3 C    0.977     2 N    0.961    17 H    0.936
                            15 H    0.936
     2   7 N    3.685 --     6 C    1.635     1 C    0.961     3 C    0.958
     3   6 C    3.885 --     1 C    0.977     2 N    0.958    18 H    0.938
                            16 H    0.937
     4   7 N    2.986 --     5 C    1.713    25 H    0.923    13 N    0.157
     5   6 C    3.969 --     4 N    1.713    13 N    1.135     6 C    1.030
     6   6 C    3.896 --     2 N    1.635     5 C    1.030     7 C    0.956
     7   6 C    3.961 --     8 O    1.701     9 N    1.200     6 C    0.956
     8   8 O    2.065 --     7 C    1.701     9 N    0.182
     9   7 N    3.583 --     7 C    1.200    11 C    1.057    10 C    0.965
                             8 O    0.182    12 O    0.102
    10   6 C    3.911 --    19 H    0.971     9 N    0.965    20 H    0.962
                            21 H    0.962
    11   6 C    3.959 --    12 O    1.726    13 N    1.090     9 N    1.057
    12   8 O    2.081 --    11 C    1.726    13 N    0.121     9 N    0.102
    13   7 N    3.545 --     5 C    1.135    11 C    1.090    14 C    0.971
                             4 N    0.157    12 O    0.121
    14   6 C    3.923 --    13 N    0.971    22 H    0.968    23 H    0.967
                            24 H    0.965
    15   1 H    0.977 --     1 C    0.936
    16   1 H    0.977 --     3 C    0.937
    17   1 H    0.977 --     1 C    0.936
    18   1 H    0.977 --     3 C    0.938
    19   1 H    0.987 --    10 C    0.971
    20   1 H    0.983 --    10 C    0.962
    21   1 H    0.983 --    10 C    0.962
    22   1 H    0.989 --    14 C    0.968
    23   1 H    0.989 --    14 C    0.967
    24   1 H    0.985 --    14 C    0.965
    25   1 H    0.957 --     4 N    0.923
 ---------------------------------------------------------------------------

molecular dipole:
                 x           y           z       tot (Debye)
 q only:        2.579      -0.463      -0.064
   full:        2.298      -0.697      -0.070       6.106

           -------------------------------------------------
          | TOTAL ENERGY              -42.143136998986 Eh   |
          | GRADIENT NORM               0.005062994071 Eh/α |
          | HOMO-LUMO GAP               1.471848600675 eV   |
           -------------------------------------------------

 * finished run on 2024/06/05 at 19:57:56.781
