   * xtb version 6.6.1 (8d0f1dd) compiled by 'conda@1efc2f54142f' on 2023-08-01
          program call               : xtb struc.xyz --opt loose --input .xc1 --gfn2

   ID    Z sym.   atoms
    1    6 C      1, 3, 5-7, 10, 11, 14
    2    7 N      2, 4, 9, 13
    3    8 O      8, 12
    4    1 H      15-25
constraining bond 3 17 to    3.7133300 Å, actual value:    3.3163079 Å

          :  Hamiltonian                  GFN2-xTB          :
 * total energy  :   -42.5267306 Eh     change       -0.6633627E-10 Eh
 * total energy  :   -44.2583841 Eh     change       -0.1731653E+01 Eh
 * total energy  :   -47.2876075 Eh     change       -0.3029223E+01 Eh
 * total energy  :   -51.6336311 Eh     change       -0.4346024E+01 Eh
 * total energy  :   -57.2597600 Eh     change       -0.5626129E+01 Eh
 * total energy  :   -37.3765376 Eh     change        0.1988322E+02 Eh
 * total energy  :   -58.9589303 Eh     change       -0.2158239E+02 Eh
 * total energy  :   -59.0806834 Eh     change       -0.1217531E+00 Eh
 * total energy  :   -59.2278198 Eh     change       -0.1471364E+00 Eh
 * total energy  :   -59.3171519 Eh     change       -0.8933205E-01 Eh
 * total energy  :   -59.7278637 Eh     change       -0.1314707E-03 Eh
 * total energy  :   -59.7279169 Eh     change       -0.5329159E-04 Eh
 * total energy  :   -59.7279948 Eh     change       -0.7782965E-04 Eh
 * total energy  :   -59.7280435 Eh     change       -0.4876960E-04 Eh
 * total energy  :   -59.7280797 Eh     change       -0.3611599E-04 Eh
 * total energy  :   -59.7281091 Eh     change       -0.2946144E-04 Eh
 * total energy  :   -59.7281277 Eh     change       -0.1858914E-04 Eh
 * total energy  :   -59.7281386 Eh     change       -0.1084703E-04 Eh
 * total energy  :   -59.7281432 Eh     change       -0.4672756E-05 Eh
   *** GEOMETRY OPTIMIZATION CONVERGED AFTER 64 ITERATIONS ***

 final structure:
================
25
 xtb: 6.6.1 (8d0f1dd)
C            3.25327064278468        1.16014077349211       -0.08292708226669
N            2.18578144331242        0.25388930291616       -0.08193671755174
C            3.49447044733071       -0.35333694005513       -0.18633833311710
N            1.17054723555165       -2.21218267393818       -0.08183377452280
C            0.34246389008652       -1.25222373572974       -0.05107803030849
C            0.92494676256621        0.09484791436944       -0.03000089054389
C            0.06688741248527        1.32194021383191        0.04527120292477
O            0.57188064910611        2.41763813363758        0.07410470547070
N           -1.26772501748102        1.06474070005802        0.06774768583767
C           -2.19117050342041        2.18984377779829        0.12975303580860
C           -1.87012057336490       -0.20008661319444        0.03254696507280
O           -3.06202081510760       -0.30774348075872        0.05832929939519
N           -1.02951467209861       -1.30839932237350       -0.03104961243361
C           -1.66374031121862       -2.61896090172732       -0.07027119249074
H            3.43270763509038        1.71338134861625        0.83139808159507
H            3.37331860701258        1.76200059973613       -0.97862418974522
H            3.62750399607771       -0.54682623583136       -0.53979662902949
H            3.75323068925339       -0.77103739408726        0.82464683359064
H           -1.61215086934062        3.10942248212620        0.11154555325363
H           -2.87172373536858        2.15146996733834       -0.71993438299931
H           -2.78047305055244        2.13184809950665        1.04449729315329
H           -1.36990639597926       -3.20754290380658        0.79965440376038
H           -1.38679654294732       -3.14273695407065       -0.98597800847035
H           -2.74181567757667       -2.47425621056320       -0.05410996892289
H            0.81058026789905       -3.15759140569069       -0.09444462956041

          :  Hamiltonian                  GFN2-xTB          :
         :: total energy             -59.728143227541 Eh    ::
         :: gradient norm              0.001911736201 Eh/a0 ::
         :: HOMO-LUMO gap              1.489942758361 eV    ::
         :: SCC energy               -42.688889029983 Eh    ::
         :: -> dispersion             -0.021822727878 Eh    ::
         :: repulsion energy           2.275489657631 Eh    ::

    * Orbital Energies and Occupations

         #    Occupation            Energy/Eh            Energy/eV
      -------------------------------------------------------------
         1        2.0000           -0.9111685             -24.7942
       ...           ...                  ...                  ...
        25        2.0000           -0.6648034             -18.0902
        26        2.0000           -0.6591357             -17.9360
        27        2.0000           -0.6550871             -17.8258
        28        2.0000           -0.6502651             -17.6946
        29        2.0000           -0.6434124             -17.5081
        30        2.0000           -0.6355653             -17.2946
        31        2.0000           -0.6232567             -16.9597
        32        1.9998           -0.6125691             -16.6689
        33        1.9982           -0.5934533             -16.1487
        34        1.9962           -0.5876299             -15.9902
        35        1.9913           -0.5811118             -15.8129
        36        1.9712           -0.5715371             -15.5523
        37        1.9570           -0.5682940             -15.4641 (HOMO)
        38        0.0863           -0.5135396             -13.9741 (LUMO)
        39                         -0.3988025             -10.8520
        40                         -0.3905626             -10.6277
        41                         -0.3167644              -8.6196
        42                         -0.3044608              -8.2848
        43                         -0.2214980              -6.0273
        44                         -0.1789357              -4.8691
        45                         -0.1421062              -3.8669
        46                         -0.1090138              -2.9664
        47                         -0.0780819              -2.1247
        48                         -0.0607581              -1.6533
       ...                                ...                  ...
        67                         10.7139625             291.5418
      -------------------------------------------------------------
                  HL-Gap            0.0547544 Eh            1.4899 eV

     #   Z          covCN         q      C6AA      α(0)
     1   6 C        3.737    -0.024    21.079     6.552
     2   7 N        2.748     0.112    19.321     6.528
     3   6 C        3.731    -0.067    21.879     6.677
     4   7 N        1.793    -0.305    28.738     7.941
     5   6 C        2.827     0.168    24.385     8.092
     6   6 C        2.900     0.058    26.698     8.472
     7   6 C        2.771     0.271    22.422     7.755
     8   8 O        0.858    -0.346    20.623     6.089
     9   7 N        2.739    -0.071    22.612     7.063
    10   6 C        3.708    -0.064    21.871     6.685
    11   6 C        2.714     0.324    21.489     7.588
    12   8 O        0.860    -0.337    20.464     6.065
    13   7 N        2.740    -0.080    22.794     7.091
    14   6 C        3.703    -0.063    21.865     6.686
    15   1 H        0.925     0.137     1.481     1.903
    16   1 H        0.925     0.141     1.455     1.887
    17   1 H        0.936     0.199     1.104     1.642
    18   1 H        0.919     0.133     1.510     1.922
    19   1 H        0.925     0.112     1.684     2.029
    20   1 H        0.925     0.106     1.731     2.057
    21   1 H        0.925     0.105     1.738     2.061
    22   1 H        0.924     0.086     1.918     2.166
    23   1 H        0.924     0.086     1.915     2.164
    24   1 H        0.925     0.119     1.619     1.990
    25   1 H        0.860     0.198     1.115     1.654

Wiberg/Mayer (AO) data.
largest (>0.10) Wiberg bond orders for each atom

     #   Z sym  total        # sym  WBO       # sym  WBO       # sym  WBO
 ---------------------------------------------------------------------------
     1   6 C    3.888 --     2 N    0.980     3 C    0.963    15 H    0.941
                            16 H    0.935
     2   7 N    3.687 --     6 C    1.633     1 C    0.980     3 C    0.938
     3   6 C    3.849 --     1 C    0.963     2 N    0.938    17 H    0.937
                            18 H    0.921
     4   7 N    2.988 --     5 C    1.709    25 H    0.925    13 N    0.159
     5   6 C    3.970 --     4 N    1.709    13 N    1.140     6 C    1.029
     6   6 C    3.896 --     2 N    1.633     5 C    1.029     7 C    0.958
     7   6 C    3.961 --     8 O    1.704     9 N    1.195     6 C    0.958
     8   8 O    2.068 --     7 C    1.704     9 N    0.183
     9   7 N    3.582 --     7 C    1.195    11 C    1.056    10 C    0.966
                             8 O    0.183    12 O    0.102
    10   6 C    3.910 --    19 H    0.971     9 N    0.966    20 H    0.961
                            21 H    0.960
    11   6 C    3.959 --    12 O    1.729    13 N    1.087     9 N    1.056
    12   8 O    2.088 --    11 C    1.729    13 N    0.120     9 N    0.102
    13   7 N    3.547 --     5 C    1.140    11 C    1.087    14 C    0.972
                             4 N    0.159    12 O    0.120
    14   6 C    3.922 --    13 N    0.972    23 H    0.967    22 H    0.967
                            24 H    0.966
    15   1 H    0.978 --     1 C    0.941
    16   1 H    0.977 --     1 C    0.935
    17   1 H    0.960 --     3 C    0.937
    18   1 H    0.977 --     3 C    0.921
    19   1 H    0.987 --    10 C    0.971
    20   1 H    0.983 --    10 C    0.961
    21   1 H    0.982 --    10 C    0.960
    22   1 H    0.989 --    14 C    0.967
    23   1 H    0.989 --    14 C    0.967
    24   1 H    0.985 --    14 C    0.966
    25   1 H    0.957 --     4 N    0.925
 ---------------------------------------------------------------------------

molecular dipole:
                 x           y           z       tot (Debye)
 q only:        2.527      -0.540      -0.048
   full:        2.222      -0.743       0.015       5.955

           -------------------------------------------------
          | TOTAL ENERGY              -59.728143227541 Eh   |
          | GRADIENT NORM               0.001911736201 Eh/α |
          | HOMO-LUMO GAP               1.489942758361 eV   |
           -------------------------------------------------

 * finished run on 2024/06/05 at 19:58:11.723
