   * xtb version 6.6.1 (8d0f1dd) compiled by 'conda@1efc2f54142f' on 2023-08-01
          program call               : xtb xtbopt.xyz --opt crude --input .xc2 --gfn2

   ID    Z sym.   atoms
    1    6 C      1, 3, 5-7, 10, 11, 14
    2    7 N      2, 4, 9, 13
    3    8 O      8, 12
    4    1 H      15-25
########################################################################
[WARNING] Please study the warnings concerning your input carefully
-1- readin_getIntValue: could not parse ''
########################################################################

          :  Hamiltonian                  GFN2-xTB          :
 * total energy  :   -40.4132907 Eh     change       -0.1350031E-12 Eh
 * total energy  :   -42.1185216 Eh     change       -0.1705231E+01 Eh
 * total energy  :   -42.1377665 Eh     change       -0.1924494E-01 Eh
 * total energy  :   -42.1410225 Eh     change       -0.3255969E-02 Eh
 * total energy  :   -42.1422663 Eh     change       -0.1243859E-02 Eh
 * total energy  :   -42.1428191 Eh     change       -0.5527330E-03 Eh
 * total energy  :   -42.1432779 Eh     change       -0.4588530E-03 Eh
 * total energy  :   -42.1435217 Eh     change       -0.2438007E-03 Eh
 * total energy  :   -42.1437214 Eh     change       -0.1997055E-03 Eh
 * total energy  :   -42.1438525 Eh     change       -0.1310702E-03 Eh
   *** GEOMETRY OPTIMIZATION CONVERGED AFTER 10 ITERATIONS ***

 final structure:
================
25
 xtb: 6.6.1 (8d0f1dd)
C            3.24932951639238        1.19055860671205       -0.00767638762362
N            2.17993329765434        0.27491776061426       -0.02550291715547
C            3.46633570952459       -0.28677669830050       -0.05932350566171
N            1.16828863878315       -2.20251897058061       -0.08356572881521
C            0.34009491032436       -1.24312376899160       -0.04642639684225
C            0.91945152427753        0.10612671160663       -0.01581730230007
C            0.05432050218331        1.33008223025198        0.03623265214027
O            0.55469059893404        2.42865633906918        0.05367448060130
N           -1.27944330972388        1.06887613437287        0.05902347303411
C           -2.20664763954294        2.19115155488291        0.11165164438074
C           -1.87729044317331       -0.19778440965025        0.03062122038340
O           -3.06900116071160       -0.30958458670256        0.05252205957372
N           -1.03214925276694       -1.30302138767661       -0.02447844592850
C           -1.66237741164955       -2.61621736347969       -0.04865217165157
H            3.41733859935606        1.73154822960075        0.91798994043819
H            3.37490510938506        1.80810737360887       -0.89032407195956
H            3.77951581640725       -0.76631575077613       -0.97449782244478
H            3.78016290196495       -0.81506926780422        0.83415114546731
H           -1.63043472401959        3.11241496035835        0.09599337374618
H           -2.88049796603715        2.14926237979980       -0.74329990897248
H           -2.80258490294727        2.13270087318902        1.02186695520738
H           -1.36581648580788       -3.19280714011538        0.82852366068736
H           -1.38515540012460       -3.15057002983715       -0.95801312834259
H           -2.74081585973197       -2.47430973411850       -0.03310767563204
H            0.80827894514934       -3.14806550443243       -0.10039352442992

          :  Hamiltonian                  GFN2-xTB          :
         :: total energy             -42.143852481092 Eh    ::
         :: gradient norm              0.005241717766 Eh/a0 ::
         :: HOMO-LUMO gap              1.497099377563 eV    ::
         :: SCC energy               -42.679736843833 Eh    ::
         :: -> dispersion             -0.021796495710 Eh    ::
         :: repulsion energy           0.535774516224 Eh    ::

    * Orbital Energies and Occupations

         #    Occupation            Energy/Eh            Energy/eV
      -------------------------------------------------------------
         1        2.0000           -0.9021419             -24.5485
       ...           ...                  ...                  ...
        25        2.0000           -0.6618193             -18.0090
        26        2.0000           -0.6573488             -17.8874
        27        2.0000           -0.6524580             -17.7543
        28        2.0000           -0.6461491             -17.5826
        29        2.0000           -0.6419612             -17.4687
        30        2.0000           -0.6339480             -17.2506
        31        2.0000           -0.6222640             -16.9327
        32        1.9999           -0.6113925             -16.6368
        33        1.9982           -0.5917751             -16.1030
        34        1.9963           -0.5860008             -15.9459
        35        1.9920           -0.5797895             -15.7769
        36        1.9734           -0.5702324             -15.5168
        37        1.9569           -0.5663323             -15.4107 (HOMO)
        38        0.0834           -0.5113149             -13.9136 (LUMO)
        39                         -0.3972940             -10.8109
        40                         -0.3890597             -10.5869
        41                         -0.3030530              -8.2465
        42                         -0.2894888              -7.8774
        43                         -0.2131420              -5.7999
        44                         -0.1721469              -4.6844
        45                         -0.1369818              -3.7275
        46                         -0.1040796              -2.8321
        47                         -0.0734063              -1.9975
        48                         -0.0511831              -1.3928
       ...                                ...                  ...
        67                          0.5792899              15.7633
      -------------------------------------------------------------
                  HL-Gap            0.0550174 Eh            1.4971 eV

     #   Z          covCN         q      C6AA      α(0)
     1   6 C        3.738    -0.021    21.023     6.543
     2   7 N        2.745     0.134    18.959     6.467
     3   6 C        3.738    -0.025    21.095     6.554
     4   7 N        1.792    -0.307    28.790     7.948
     5   6 C        2.827     0.168    24.384     8.091
     6   6 C        2.899     0.055    26.765     8.483
     7   6 C        2.772     0.271    22.422     7.755
     8   8 O        0.858    -0.347    20.652     6.093
     9   7 N        2.739    -0.071    22.627     7.065
    10   6 C        3.708    -0.063    21.864     6.683
    11   6 C        2.714     0.324    21.488     7.588
    12   8 O        0.860    -0.338    20.486     6.068
    13   7 N        2.740    -0.081    22.808     7.093
    14   6 C        3.703    -0.063    21.861     6.685
    15   1 H        0.925     0.139     1.472     1.897
    16   1 H        0.925     0.139     1.466     1.893
    17   1 H        0.926     0.139     1.471     1.897
    18   1 H        0.925     0.138     1.476     1.900
    19   1 H        0.925     0.111     1.687     2.031
    20   1 H        0.925     0.105     1.737     2.061
    21   1 H        0.925     0.105     1.744     2.065
    22   1 H        0.924     0.085     1.924     2.169
    23   1 H        0.924     0.086     1.922     2.168
    24   1 H        0.925     0.119     1.620     1.991
    25   1 H        0.860     0.198     1.115     1.654

Wiberg/Mayer (AO) data.
largest (>0.10) Wiberg bond orders for each atom

     #   Z sym  total        # sym  WBO       # sym  WBO       # sym  WBO
 ---------------------------------------------------------------------------
     1   6 C    3.885 --     3 C    0.976     2 N    0.962    15 H    0.937
                            16 H    0.936
     2   7 N    3.696 --     6 C    1.634     3 C    0.963     1 C    0.962
     3   6 C    3.887 --     1 C    0.976     2 N    0.963    17 H    0.937
                            18 H    0.936
     4   7 N    2.989 --     5 C    1.710    25 H    0.925    13 N    0.159
     5   6 C    3.970 --     4 N    1.710    13 N    1.140     6 C    1.028
     6   6 C    3.898 --     2 N    1.634     5 C    1.028     7 C    0.960
     7   6 C    3.962 --     8 O    1.704     9 N    1.195     6 C    0.960
     8   8 O    2.066 --     7 C    1.704     9 N    0.183
     9   7 N    3.581 --     7 C    1.195    11 C    1.057    10 C    0.966
                             8 O    0.183    12 O    0.102
    10   6 C    3.911 --    19 H    0.971     9 N    0.966    20 H    0.962
                            21 H    0.961
    11   6 C    3.959 --    12 O    1.728    13 N    1.087     9 N    1.057
    12   8 O    2.088 --    11 C    1.728    13 N    0.120     9 N    0.102
    13   7 N    3.547 --     5 C    1.140    11 C    1.087    14 C    0.972
                             4 N    0.159    12 O    0.120
    14   6 C    3.923 --    13 N    0.972    23 H    0.968    22 H    0.968
                            24 H    0.966
    15   1 H    0.977 --     1 C    0.937
    16   1 H    0.977 --     1 C    0.936
    17   1 H    0.977 --     3 C    0.937
    18   1 H    0.977 --     3 C    0.936
    19   1 H    0.987 --    10 C    0.971
    20   1 H    0.983 --    10 C    0.962
    21   1 H    0.983 --    10 C    0.961
    22   1 H    0.989 --    14 C    0.968
    23   1 H    0.989 --    14 C    0.968
    24   1 H    0.985 --    14 C    0.966
    25   1 H    0.957 --     4 N    0.925
 ---------------------------------------------------------------------------

molecular dipole:
                 x           y           z       tot (Debye)
 q only:        2.588      -0.544      -0.039
   full:        2.304      -0.777      -0.041       6.181

           -------------------------------------------------
          | TOTAL ENERGY              -42.143852481092 Eh   |
          | GRADIENT NORM               0.005241717766 Eh/α |
          | HOMO-LUMO GAP               1.497099377563 eV   |
           -------------------------------------------------

 * finished run on 2024/06/05 at 19:58:12.123
