   * xtb version 6.6.1 (8d0f1dd) compiled by 'conda@1efc2f54142f' on 2023-08-01
          program call               : xtb struc.xyz --opt loose --input .xc1 --gfn2

   ID    Z sym.   atoms
    1    6 C      1, 3, 5-7, 10, 11, 14
    2    7 N      2, 4, 9, 13
    3    8 O      8, 12
    4    1 H      15-25
constraining bond 2 8 to    5.6800000 Å, actual value:    3.0543308 Å

          :  Hamiltonian                  GFN2-xTB          :
 * total energy  :     6.9909655 Eh     change       -0.6650680E-10 Eh
 * total energy  :   -15.0781291 Eh     change       -0.2206909E+02 Eh
 * total energy  :   -28.5031473 Eh     change       -0.1342502E+02 Eh
 * total energy  :   -36.8657150 Eh     change       -0.8362568E+01 Eh
 * total energy  :   -40.7780896 Eh     change       -0.3912375E+01 Eh
 * total energy  :   -41.6015741 Eh     change       -0.8234844E+00 Eh
 * total energy  :   -41.6405280 Eh     change       -0.3895396E-01 Eh
 * total energy  :   -41.6611757 Eh     change       -0.2064770E-01 Eh
 * total energy  :   -41.6828148 Eh     change       -0.2163909E-01 Eh
 * total energy  :   -41.7045055 Eh     change       -0.2169068E-01 Eh
 * total energy  :   -42.1200435 Eh     change       -0.6014491E-04 Eh
 * total energy  :   -42.1200941 Eh     change       -0.5056898E-04 Eh
 * total energy  :   -42.1201376 Eh     change       -0.4349674E-04 Eh
 * total energy  :   -42.1201987 Eh     change       -0.6111316E-04 Eh
 * total energy  :   -42.1202436 Eh     change       -0.4488645E-04 Eh
 * total energy  :   -42.1203181 Eh     change       -0.7454543E-04 Eh
 * total energy  :   -42.1203870 Eh     change       -0.6885576E-04 Eh
 * total energy  :   -42.1204391 Eh     change       -0.5216664E-04 Eh
 * total energy  :   -42.1204729 Eh     change       -0.3381306E-04 Eh
   *** GEOMETRY OPTIMIZATION CONVERGED AFTER 70 ITERATIONS ***

 final structure:
================
25
 xtb: 6.6.1 (8d0f1dd)
C            4.11146419713143        0.40049897944752       -0.29213141551441
N            3.71264930292389       -0.80340166980216       -0.40530194247277
C            2.78064985399584       -1.59657040827626       -0.00032511760974
N            1.42861143967495       -1.45803894194884        0.17398276288730
C            0.44542862804931       -0.50236896556636        0.09072423772919
C            0.57900297070854        0.88354033490019        0.12282489880938
C           -0.53686483966915        1.71177793950595        0.09775489834137
O           -0.42400920077810        3.03770147901418        0.20999738102424
N           -1.79388666846568        1.17151044409296       -0.04247347443286
C           -2.91411467355351        1.89987126326152       -0.18810785399429
C           -1.97730083017415       -0.24540012090041        0.00421689692864
O           -3.08803779196197       -0.70526001742693       -0.00931067318930
N           -0.84335450340617       -1.01972320303915        0.05569335455341
C           -1.09348697680070       -2.45659700963859        0.05551885931991
H            3.84488694592084        1.04431559029058        0.53982055791328
H            4.84087190281142        0.75939163780653       -1.00202167456696
H            1.54700285039010        1.34549206484522        0.19827243114401
H            3.09741618529854       -2.62699353864879        0.10918141635789
H           -1.26640480679318        3.47097229074156        0.40809449027246
H           -2.88260323674043        2.95693999017517       -0.36394055044483
H           -3.84430936195677        1.36762413684859       -0.22052244500059
H           -0.78065517193273       -2.91664031239540        0.99497111257563
H           -0.62256473654106       -2.93858144779818       -0.80224562892027
H           -2.17222132359491       -2.59219303257488       -0.03158331349724
H            1.01226135956573       -2.36962894130688        0.32808240968548

          :  Hamiltonian                  GFN2-xTB          :
         :: total energy             -42.120472950234 Eh    ::
         :: gradient norm              0.003172930577 Eh/a0 ::
         :: HOMO-LUMO gap              0.886135178608 eV    ::
         :: SCC energy               -42.658586877271 Eh    ::
         :: -> dispersion             -0.021643834699 Eh    ::
         :: repulsion energy           0.538037426663 Eh    ::

    * Orbital Energies and Occupations

         #    Occupation            Energy/Eh            Energy/eV
      -------------------------------------------------------------
         1        2.0000           -0.8850989             -24.0848
       ...           ...                  ...                  ...
        25        2.0000           -0.6710072             -18.2590
        26        2.0000           -0.6517922             -17.7362
        27        2.0000           -0.6504457             -17.6995
        28        2.0000           -0.6423990             -17.4806
        29        1.9999           -0.6342108             -17.2578
        30        1.9999           -0.6273323             -17.0706
        31        1.9998           -0.6164671             -16.7749
        32        1.9998           -0.6134978             -16.6941
        33        1.9996           -0.6030193             -16.4090
        34        1.9978           -0.5776214             -15.7179
        35        1.9951           -0.5646896             -15.3660
        36        1.9912           -0.5555426             -15.1171
        37        1.4549           -0.4852396             -13.2040 (HOMO)
        38        0.5090           -0.4526747             -12.3179 (LUMO)
        39        0.0433           -0.4093561             -11.1391
        40        0.0079           -0.3822199             -10.4007
        41        0.0018           -0.3590743              -9.7709
        42        0.0000           -0.2889559              -7.8629
        43                         -0.1937343              -5.2718
        44                         -0.1606478              -4.3714
        45                         -0.1307342              -3.5575
        46                         -0.1035703              -2.8183
        47                         -0.0886829              -2.4132
        48                         -0.0647780              -1.7627
       ...                                ...                  ...
        67                          0.5819834              15.8366
      -------------------------------------------------------------
                  HL-Gap            0.0325649 Eh            0.8861 eV

     #   Z          covCN         q      C6AA      α(0)
     1   6 C        2.774     0.006    27.864     8.646
     2   7 N        1.822    -0.067    23.273     7.148
     3   6 C        2.760     0.082    26.157     8.375
     4   7 N        2.690    -0.101    23.227     7.158
     5   6 C        2.827     0.108    25.603     8.291
     6   6 C        2.904    -0.096    30.413     9.043
     7   6 C        2.783     0.194    23.858     8.001
     8   8 O        1.660    -0.337    19.660     5.986
     9   7 N        2.739    -0.006    21.368     6.865
    10   6 C        2.811    -0.067    29.659     8.923
    11   6 C        2.747     0.310    21.743     7.635
    12   8 O        0.859    -0.370    21.098     6.158
    13   7 N        2.748    -0.061    22.416     7.032
    14   6 C        3.706    -0.080    22.180     6.732
    15   1 H        0.925     0.082     1.955     2.186
    16   1 H        0.926     0.112     1.678     2.026
    17   1 H        0.926     0.103     1.759     2.074
    18   1 H        0.925     0.101     1.777     2.085
    19   1 H        0.805     0.345     0.599     1.216
    20   1 H        0.926     0.088     1.903     2.157
    21   1 H        0.926     0.124     1.582     1.967
    22   1 H        0.924     0.083     1.951     2.184
    23   1 H        0.924     0.084     1.935     2.176
    24   1 H        0.924     0.133     1.509     1.921
    25   1 H        0.860     0.230     0.967     1.540

Wiberg/Mayer (AO) data.
largest (>0.10) Wiberg bond orders for each atom

     #   Z sym  total        # sym  WBO       # sym  WBO       # sym  WBO
 ---------------------------------------------------------------------------
     1   6 C    3.680 --     2 N    1.681    16 H    0.953    15 H    0.939
     2   7 N    3.300 --     1 C    1.681     3 C    1.485
     3   6 C    3.749 --     2 N    1.485     4 N    1.195    18 H    0.936
     4   7 N    3.502 --     3 C    1.195     5 C    1.167    25 H    0.894
     5   6 C    3.825 --     6 C    1.349     4 N    1.167    13 N    1.125
     6   6 C    3.923 --     7 C    1.371     5 C    1.349    17 H    0.952
     7   6 C    3.814 --     6 C    1.371     8 O    1.143     9 N    1.133
     8   8 O    2.159 --     7 C    1.143    19 H    0.841
     9   7 N    3.643 --    10 C    1.306     7 C    1.133    11 C    0.986
    10   6 C    3.432 --     9 N    1.306    20 H    0.961    21 H    0.960
    11   6 C    3.925 --    12 O    1.688    13 N    1.148     9 N    0.986
    12   8 O    2.027 --    11 C    1.688    13 N    0.153
    13   7 N    3.545 --    11 C    1.148     5 C    1.125    14 C    0.976
                            12 O    0.153
    14   6 C    3.930 --    13 N    0.976    23 H    0.967    22 H    0.963
                            24 H    0.955
    15   1 H    0.978 --     1 C    0.939
    16   1 H    0.981 --     1 C    0.953
    17   1 H    0.988 --     6 C    0.952
    18   1 H    0.983 --     3 C    0.936
    19   1 H    0.879 --     8 O    0.841
    20   1 H    0.991 --    10 C    0.961
    21   1 H    0.984 --    10 C    0.960
    22   1 H    0.990 --    14 C    0.963
    23   1 H    0.990 --    14 C    0.967
    24   1 H    0.982 --    14 C    0.955
    25   1 H    0.947 --     4 N    0.894
 ---------------------------------------------------------------------------

molecular dipole:
                 x           y           z       tot (Debye)
 q only:        1.430      -0.291       0.180
   full:        1.286      -0.127       0.294       3.368

           -------------------------------------------------
          | TOTAL ENERGY              -42.120472950234 Eh   |
          | GRADIENT NORM               0.003172930577 Eh/α |
          | HOMO-LUMO GAP               0.886135178608 eV   |
           -------------------------------------------------

 * finished run on 2024/06/05 at 20:00:07.202
