   * xtb version 6.6.1 (8d0f1dd) compiled by 'conda@1efc2f54142f' on 2023-08-01
          program call               : xtb xtbopt.xyz --opt crude --input .xc2 --gfn2

   ID    Z sym.   atoms
    1    6 C      1, 3, 5-7, 10, 11, 14
    2    7 N      2, 4, 9, 13
    3    8 O      8, 12
    4    1 H      15-25
########################################################################
[WARNING] Please study the warnings concerning your input carefully
-1- readin_getIntValue: could not parse ''
########################################################################

          :  Hamiltonian                  GFN2-xTB          :
 * total energy  :   -42.1204905 Eh     change       -0.5670131E-11 Eh
 * total energy  :   -42.1222962 Eh     change       -0.1805768E-02 Eh
 * total energy  :   -42.1244869 Eh     change       -0.2190703E-02 Eh
 * total energy  :   -42.1257156 Eh     change       -0.1228634E-02 Eh
 * total energy  :   -42.1262822 Eh     change       -0.5666202E-03 Eh
 * total energy  :   -42.1264654 Eh     change       -0.1832596E-03 Eh
   *** GEOMETRY OPTIMIZATION CONVERGED AFTER 6 ITERATIONS ***

 final structure:
================
25
 xtb: 6.6.1 (8d0f1dd)
C            3.88258968487505        0.63832711736604       -0.25037619610206
N            3.48931150175741       -0.55671426421088       -0.40968600261879
C            2.74611053219647       -1.52566926272487       -0.00566929117202
N            1.40323648676700       -1.58849301110268        0.21588653926453
C            0.41672482874147       -0.64270379146716        0.13179087388675
C            0.63091316914262        0.72554959815444        0.14318040164848
C           -0.42939973542423        1.60985310118769        0.06983352954175
O           -0.16896574162041        2.91547704980460        0.10395065323787
N           -1.71604707603494        1.14994349731415       -0.04186744192146
C           -2.79205326075986        1.94198379557215       -0.17833684083469
C           -1.97693046942788       -0.26124815067414        0.00625175736371
O           -3.10924265103505       -0.66216626342340       -0.02704627132413
N           -0.88665666144871       -1.09589673155996        0.07748137501376
C           -1.18405519173909       -2.52163561309189        0.06662913090912
H            3.72289507621813        1.21347973433316        0.65743144581970
H            4.49947049501588        1.06742487240133       -1.02645001523427
H            1.61314035416664        1.14792850252648        0.22233489837147
H            3.22988022517873       -2.49614250672911        0.03157932941818
H           -0.95880743328073        3.45740478492859        0.24506502269833
H           -2.69953486156881        2.99990750816389       -0.32087546546903
H           -3.75186103132218        1.46542780714444       -0.21148198451970
H           -0.89918535263841       -2.99022794048153        1.01026023949149
H           -0.69854866227012       -3.01168436327178       -0.77835976627894
H           -2.26248708507992       -2.62913818828491       -0.04894972891892
H            1.05993437369298       -2.53274874026748        0.34859542562774

          :  Hamiltonian                  GFN2-xTB          :
         :: total energy             -42.126465446001 Eh    ::
         :: gradient norm              0.004426422661 Eh/a0 ::
         :: HOMO-LUMO gap              0.925855491514 eV    ::
         :: SCC energy               -42.674150072427 Eh    ::
         :: -> dispersion             -0.021987961029 Eh    ::
         :: repulsion energy           0.547603809199 Eh    ::

    * Orbital Energies and Occupations

         #    Occupation            Energy/Eh            Energy/eV
      -------------------------------------------------------------
         1        2.0000           -0.8833447             -24.0370
       ...           ...                  ...                  ...
        25        2.0000           -0.6686028             -18.1936
        26        2.0000           -0.6527585             -17.7625
        27        2.0000           -0.6472533             -17.6127
        28        2.0000           -0.6429185             -17.4947
        29        1.9999           -0.6315628             -17.1857
        30        1.9999           -0.6271990             -17.0670
        31        1.9999           -0.6157085             -16.7543
        32        1.9998           -0.6108582             -16.6223
        33        1.9997           -0.6040684             -16.4375
        34        1.9982           -0.5752699             -15.6539
        35        1.9967           -0.5652927             -15.3824
        36        1.9938           -0.5554165             -15.1137
        37        1.4631           -0.4798901             -13.0585 (HOMO)
        38        0.4823           -0.4458656             -12.1326 (LUMO)
        39        0.0527           -0.4068656             -11.0714
        40        0.0107           -0.3813297             -10.3765
        41        0.0033           -0.3625688              -9.8660
        42        0.0000           -0.2829014              -7.6981
        43                         -0.1898997              -5.1674
        44                         -0.1507266              -4.1015
        45                         -0.1255817              -3.4173
        46                         -0.0969932              -2.6393
        47                         -0.0807768              -2.1980
        48                         -0.0620093              -1.6874
       ...                                ...                  ...
        67                          0.6099062              16.5964
      -------------------------------------------------------------
                  HL-Gap            0.0340246 Eh            0.9259 eV

     #   Z          covCN         q      C6AA      α(0)
     1   6 C        2.769     0.003    27.930     8.655
     2   7 N        1.823    -0.058    23.092     7.120
     3   6 C        2.757     0.082    26.147     8.374
     4   7 N        2.690    -0.092    23.048     7.130
     5   6 C        2.837     0.106    25.647     8.299
     6   6 C        2.909    -0.103    30.610     9.072
     7   6 C        2.788     0.192    23.898     8.008
     8   8 O        1.661    -0.339    19.707     5.993
     9   7 N        2.739    -0.006    21.375     6.867
    10   6 C        2.809    -0.069    29.700     8.929
    11   6 C        2.742     0.308    21.763     7.638
    12   8 O        0.859    -0.369    21.063     6.153
    13   7 N        2.745    -0.056    22.329     7.018
    14   6 C        3.704    -0.077    22.126     6.725
    15   1 H        0.925     0.091     1.868     2.138
    16   1 H        0.926     0.115     1.656     2.012
    17   1 H        0.926     0.103     1.761     2.075
    18   1 H        0.925     0.106     1.733     2.059
    19   1 H        0.805     0.343     0.605     1.222
    20   1 H        0.926     0.083     1.951     2.184
    21   1 H        0.926     0.121     1.604     1.980
    22   1 H        0.924     0.082     1.960     2.190
    23   1 H        0.924     0.082     1.963     2.191
    24   1 H        0.925     0.129     1.540     1.940
    25   1 H        0.860     0.224     0.992     1.560

Wiberg/Mayer (AO) data.
largest (>0.10) Wiberg bond orders for each atom

     #   Z sym  total        # sym  WBO       # sym  WBO       # sym  WBO
 ---------------------------------------------------------------------------
     1   6 C    3.692 --     2 N    1.692    16 H    0.948    15 H    0.933
     2   7 N    3.323 --     1 C    1.692     3 C    1.491
     3   6 C    3.762 --     2 N    1.491     4 N    1.204    18 H    0.930
     4   7 N    3.510 --     3 C    1.204     5 C    1.158    25 H    0.905
     5   6 C    3.823 --     6 C    1.353     4 N    1.158    13 N    1.133
     6   6 C    3.924 --     7 C    1.369     5 C    1.353    17 H    0.945
     7   6 C    3.815 --     6 C    1.369     8 O    1.139     9 N    1.139
     8   8 O    2.157 --     7 C    1.139    19 H    0.845
     9   7 N    3.645 --    10 C    1.304     7 C    1.139    11 C    0.980
    10   6 C    3.439 --     9 N    1.304    20 H    0.962    21 H    0.961
    11   6 C    3.923 --    12 O    1.692    13 N    1.146     9 N    0.980
    12   8 O    2.030 --    11 C    1.692    13 N    0.152
    13   7 N    3.548 --    11 C    1.146     5 C    1.133    14 C    0.976
                            12 O    0.152
    14   6 C    3.931 --    13 N    0.976    23 H    0.969    22 H    0.966
                            24 H    0.959
    15   1 H    0.976 --     1 C    0.933
    16   1 H    0.979 --     1 C    0.948
    17   1 H    0.988 --     6 C    0.945
    18   1 H    0.979 --     3 C    0.930
    19   1 H    0.881 --     8 O    0.845
    20   1 H    0.992 --    10 C    0.962
    21   1 H    0.985 --    10 C    0.961
    22   1 H    0.990 --    14 C    0.966
    23   1 H    0.991 --    14 C    0.969
    24   1 H    0.983 --    14 C    0.959
    25   1 H    0.949 --     4 N    0.905
 ---------------------------------------------------------------------------

molecular dipole:
                 x           y           z       tot (Debye)
 q only:        1.720      -0.356       0.162
   full:        1.608      -0.242       0.277       4.193

           -------------------------------------------------
          | TOTAL ENERGY              -42.126465446001 Eh   |
          | GRADIENT NORM               0.004426422661 Eh/α |
          | HOMO-LUMO GAP               0.925855491514 eV   |
           -------------------------------------------------

 * finished run on 2024/06/05 at 20:00:07.495
