   * xtb version 6.6.1 (8d0f1dd) compiled by 'conda@1efc2f54142f' on 2023-08-01
          program call               : xtb xtbopt.xyz --opt crude --input .xc2 --gfn2

   ID    Z sym.   atoms
    1    6 C      1, 3, 5-7, 10, 11, 14
    2    7 N      2, 4, 9, 13
    3    8 O      8, 12
    4    1 H      15-25
########################################################################
[WARNING] Please study the warnings concerning your input carefully
-1- readin_getIntValue: could not parse ''
########################################################################

          :  Hamiltonian                  GFN2-xTB          :
 * total energy  :   -42.1080641 Eh     change       -0.6821210E-12 Eh
 * total energy  :   -42.1132269 Eh     change       -0.5162863E-02 Eh
 * total energy  :   -42.1173705 Eh     change       -0.4143578E-02 Eh
 * total energy  :   -42.1184684 Eh     change       -0.1097893E-02 Eh
 * total energy  :   -42.1189249 Eh     change       -0.4565492E-03 Eh
   *** GEOMETRY OPTIMIZATION CONVERGED AFTER 5 ITERATIONS ***

 final structure:
================
25
 xtb: 6.6.1 (8d0f1dd)
C            3.03121918236207        0.75513287663684        0.16226526583781
N            2.43445610401664       -0.56890780636350       -0.00994142521585
C            3.32749942830134       -1.64117369776778       -0.10752162456283
N            3.08928154877802       -2.86073296976384       -0.19117203544622
C           -0.06625291391924       -0.19952071816052       -0.03059561273204
C            1.14134867793627       -0.75404324382811       -0.03160644586461
C           -0.41561731660472        1.28160220031070       -0.09977134701842
O            0.34992293785690        2.20600019901573       -0.15168957887273
N           -1.77239195521479        1.31134696761533       -0.05213480403610
C           -2.58828418439324        2.50255109557823       -0.05938680038280
C           -2.33211198688423        0.03512530528628        0.01869351071155
O           -3.49397396803706       -0.23756071053576        0.06195373611548
N           -1.26933735633023       -0.85809578343232        0.03229236288368
C           -1.45152812292881       -2.28031102319514        0.08405693231702
H            3.58244103147498        0.79410150381946        1.10245736599203
H            3.71460856034512        0.94414804662975       -0.66670596648660
H            2.26130344393953        1.52564639993411        0.16155954133186
H            4.36832182950557       -1.32619502216871       -0.09184652808389
H           -1.93944558021745        3.37560887953196       -0.08522312170908
H           -3.24239717053694        2.49338908452896       -0.93276013931862
H           -3.20939696263077        2.52082662899278        0.83784564040450
H           -0.99872933387975       -2.69426403523697        0.98686836049885
H           -1.00222775422281       -2.75235119763958       -0.79194068726094
H           -2.52331287245110       -2.47749423690860        0.09361113881481
H            2.16503624783407       -3.27659020128312       -0.20813612001524

          :  Hamiltonian                  GFN2-xTB          :
         :: total energy             -42.118924935412 Eh    ::
         :: gradient norm              0.008460297805 Eh/a0 ::
         :: HOMO-LUMO gap              0.519796901836 eV    ::
         :: SCC energy               -42.661652116354 Eh    ::
         :: -> dispersion             -0.020804894427 Eh    ::
         :: repulsion energy           0.542659544167 Eh    ::

    * Orbital Energies and Occupations

         #    Occupation            Energy/Eh            Energy/eV
      -------------------------------------------------------------
         1        2.0000           -0.8996996             -24.4821
       ...           ...                  ...                  ...
        25        1.9994           -0.6574611             -17.8904
        26        1.9992           -0.6538280             -17.7916
        27        1.9991           -0.6507584             -17.7080
        28        1.9985           -0.6433809             -17.5073
        29        1.9983           -0.6411831             -17.4475
        30        1.9976           -0.6356436             -17.2967
        31        1.9957           -0.6263689             -17.0444
        32        1.9884           -0.6105262             -16.6133
        33        1.9836           -0.6050286             -16.4637
        34        1.9562           -0.5892525             -16.0344
        35        1.9291           -0.5814034             -15.8208
        36        1.8165           -0.5653994             -15.3853
        37        1.4479           -0.5443623             -14.8129 (HOMO)
        38        0.8794           -0.5252601             -14.2931 (LUMO)
        39        0.0111           -0.4468906             -12.1605
        40        0.0003           -0.3892561             -10.5922
        41        0.0000           -0.3501540              -9.5282
        42        0.0000           -0.3159120              -8.5964
        43                         -0.1968929              -5.3577
        44                         -0.1707913              -4.6475
        45                         -0.1491268              -4.0579
        46                         -0.0808804              -2.2009
        47                         -0.0666610              -1.8139
        48                         -0.0502445              -1.3672
       ...                                ...                  ...
        67                          0.6344080              17.2631
      -------------------------------------------------------------
                  HL-Gap            0.0191022 Eh            0.5198 eV

     #   Z          covCN         q      C6AA      α(0)
     1   6 C        3.703    -0.091    22.408     6.768
     2   7 N        2.730     0.061    20.172     6.670
     3   6 C        2.783     0.126    25.229     8.227
     4   7 N        1.773    -0.202    26.193     7.579
     5   6 C        2.971     0.028    27.375     8.582
     6   6 C        1.936     0.013    30.742     8.954
     7   6 C        2.830     0.278    22.300     7.738
     8   8 O        0.857    -0.320    20.152     6.019
     9   7 N        2.790    -0.061    22.414     7.031
    10   6 C        3.691    -0.059    21.836     6.687
    11   6 C        2.815     0.321    21.548     7.606
    12   8 O        0.857    -0.318    20.104     6.012
    13   7 N        2.785    -0.023    21.693     6.918
    14   6 C        3.691    -0.069    22.021     6.715
    15   1 H        0.924     0.108     1.717     2.049
    16   1 H        0.924     0.112     1.682     2.028
    17   1 H        0.925     0.126     1.562     1.954
    18   1 H        0.925     0.122     1.599     1.977
    19   1 H        0.925     0.111     1.684     2.029
    20   1 H        0.924     0.111     1.686     2.031
    21   1 H        0.924     0.111     1.692     2.034
    22   1 H        0.924     0.099     1.797     2.097
    23   1 H        0.924     0.097     1.810     2.104
    24   1 H        0.925     0.122     1.595     1.975
    25   1 H        0.860     0.197     1.120     1.658

Wiberg/Mayer (AO) data.
largest (>0.10) Wiberg bond orders for each atom

     #   Z sym  total        # sym  WBO       # sym  WBO       # sym  WBO
 ---------------------------------------------------------------------------
     1   6 C    3.842 --    15 H    0.954    16 H    0.950    17 H    0.950
                             2 N    0.937
     2   7 N    3.519 --     6 C    1.371     3 C    1.059     1 C    0.937
     3   6 C    3.918 --     4 N    1.882     2 N    1.059    18 H    0.924
     4   7 N    2.937 --     3 C    1.882    25 H    0.922
     5   6 C    3.775 --     6 C    1.559    13 N    1.147     7 C    0.880
     6   6 C    3.179 --     5 C    1.559     2 N    1.371
     7   6 C    3.864 --     8 O    1.709     9 N    1.180     5 C    0.880
     8   8 O    2.039 --     7 C    1.709     9 N    0.134
     9   7 N    3.520 --     7 C    1.180    11 C    1.058    10 C    0.975
                             8 O    0.134    12 O    0.106
    10   6 C    3.885 --     9 N    0.975    19 H    0.969    21 H    0.952
                            20 H    0.951
    11   6 C    3.941 --    12 O    1.720    13 N    1.078     9 N    1.058
    12   8 O    2.010 --    11 C    1.720     9 N    0.106    13 N    0.106
    13   7 N    3.419 --     5 C    1.147    11 C    1.078    14 C    0.993
                            12 O    0.106
    14   6 C    3.907 --    13 N    0.993    24 H    0.965    23 H    0.955
                            22 H    0.954
    15   1 H    0.971 --     1 C    0.954
    16   1 H    0.969 --     1 C    0.950
    17   1 H    0.979 --     1 C    0.950
    18   1 H    0.968 --     3 C    0.924
    19   1 H    0.982 --    10 C    0.969
    20   1 H    0.969 --    10 C    0.951
    21   1 H    0.970 --    10 C    0.952
    22   1 H    0.969 --    14 C    0.954
    23   1 H    0.971 --    14 C    0.955
    24   1 H    0.982 --    14 C    0.965
    25   1 H    0.950 --     4 N    0.922
 ---------------------------------------------------------------------------

molecular dipole:
                 x           y           z       tot (Debye)
 q only:        1.536      -0.735       0.074
   full:        1.378      -0.564       0.095       3.792

           -------------------------------------------------
          | TOTAL ENERGY              -42.118924935412 Eh   |
          | GRADIENT NORM               0.008460297805 Eh/α |
          | HOMO-LUMO GAP               0.519796901836 eV   |
           -------------------------------------------------

 * finished run on 2024/06/05 at 20:00:08.981
