   * xtb version 6.6.1 (8d0f1dd) compiled by 'conda@1efc2f54142f' on 2023-08-01
          program call               : xtb struc.xyz --opt loose --input .xc1 --gfn2

   ID    Z sym.   atoms
    1    6 C      1, 3, 5-7, 10, 11, 14
    2    7 N      2, 4, 9, 13
    3    8 O      8, 12
    4    1 H      15-25
constraining bond 5 18 to    3.7133300 Å, actual value:    3.2287314 Å

          :  Hamiltonian                  GFN2-xTB          :
 * total energy  :   -42.6645903 Eh     change       -0.6633627E-10 Eh
 * total energy  :   -44.5227922 Eh     change       -0.1858202E+01 Eh
 * total energy  :   -47.1612607 Eh     change       -0.2638468E+01 Eh
 * total energy  :   -50.4438179 Eh     change       -0.3282557E+01 Eh
 * total energy  :   -54.2183895 Eh     change       -0.3774572E+01 Eh
 * total energy  :   -56.9781539 Eh     change       -0.2759764E+01 Eh
 * total energy  :   -58.0709897 Eh     change       -0.1092836E+01 Eh
 * total energy  :   -58.8116922 Eh     change       -0.7407025E+00 Eh
 * total energy  :   -54.8902999 Eh     change        0.3921392E+01 Eh
 * total energy  :   -58.9893014 Eh     change       -0.4099002E+01 Eh
 * total energy  :   -59.6768938 Eh     change       -0.8172977E-04 Eh
 * total energy  :   -59.6769734 Eh     change       -0.7957262E-04 Eh
 * total energy  :   -59.6770447 Eh     change       -0.7123126E-04 Eh
 * total energy  :   -59.6771298 Eh     change       -0.8513798E-04 Eh
 * total energy  :   -59.6772038 Eh     change       -0.7401684E-04 Eh
 * total energy  :   -59.6772746 Eh     change       -0.7079971E-04 Eh
 * total energy  :   -59.6773263 Eh     change       -0.5165828E-04 Eh
 * total energy  :   -59.6773671 Eh     change       -0.4084037E-04 Eh
 * total energy  :   -59.6773957 Eh     change       -0.2856134E-04 Eh
   *** GEOMETRY OPTIMIZATION CONVERGED AFTER 92 ITERATIONS ***

 final structure:
================
25
 xtb: 6.6.1 (8d0f1dd)
C            2.55217025570770        0.12449998953717        1.27917477610063
N            1.58104372866419       -0.24380666503297        0.33676806039739
C            1.32644461156275       -0.89643405326340       -0.73377687143027
N            3.17811635860016       -2.05965927959132       -1.18127314668647
C            1.99584906733828       -1.82340322143798       -1.67621643158222
C            0.19872371991417       -0.09593035139615       -0.19354537711329
C           -0.24252260642223        1.26113118061400       -0.75157928281236
O            0.44598336898006        2.02077790519049       -1.36990106537516
N           -1.53319187274829        1.38404673335317       -0.35303648832386
C           -2.39581817347118        2.50338568130205       -0.65604016691734
C           -1.97535788108794        0.28431206920696        0.39976986370721
O           -3.05572145012771        0.13995027391289        0.87709448020980
N           -0.90869638038189       -0.60031154316549        0.48620685503479
C           -1.00626159201430       -1.89577910652700        1.11444502882139
H            2.14830010096675        0.02609359453800        2.29014007323996
H            3.43442156171223       -0.50414843080384        1.14468186627760
H            2.82622033873508        1.17352140125508        1.13161071730065
H            1.80445592908697       -1.96218325946718       -2.02861187815770
H           -1.79853443897229        3.41151370579601       -0.70497742895103
H           -2.89126115537156        2.34976561378523       -1.61602120741334
H           -3.15043086829768        2.57456162692848        0.12622819414304
H           -0.23517290796439       -2.01708806920904        1.87472734299443
H           -0.91693243755476       -2.69424725365481        0.37531415665566
H           -1.98480438476910       -1.95227261297016        1.58504992950885
H            3.76340862199163       -2.69005738731103       -1.72506038173608

          :  Hamiltonian                  GFN2-xTB          :
         :: total energy             -59.677395673140 Eh    ::
         :: gradient norm              0.003417933404 Eh/a0 ::
         :: HOMO-LUMO gap              1.166248131621 eV    ::
         :: SCC energy               -42.627839787514 Eh    ::
         :: -> dispersion             -0.021339271774 Eh    ::
         :: repulsion energy           2.265044648632 Eh    ::

    * Orbital Energies and Occupations

         #    Occupation            Energy/Eh            Energy/eV
      -------------------------------------------------------------
         1        2.0000           -0.9248029             -25.1652
       ...           ...                  ...                  ...
        25        2.0000           -0.6758225             -18.3901
        26        2.0000           -0.6749137             -18.3653
        27        2.0000           -0.6577600             -17.8986
        28        2.0000           -0.6493697             -17.6702
        29        2.0000           -0.6421845             -17.4747
        30        2.0000           -0.6402101             -17.4210
        31        2.0000           -0.6321309             -17.2012
        32        1.9999           -0.6142614             -16.7149
        33        1.9968           -0.5890130             -16.0279
        34        1.9876           -0.5782741             -15.7356
        35        1.9818           -0.5752174             -15.6525
        36        1.9647           -0.5699074             -15.5080
        37        1.9051           -0.5618353             -15.2883 (HOMO)
        38        0.1642           -0.5189765             -14.1221 (LUMO)
        39        0.0000           -0.4279314             -11.6446
        40        0.0000           -0.4095146             -11.1435
        41                         -0.3400111              -9.2522
        42                         -0.2843695              -7.7381
        43                         -0.2346122              -6.3841
        44                         -0.1840160              -5.0073
        45                         -0.1533564              -4.1730
        46                         -0.1243894              -3.3848
        47                         -0.0776082              -2.1118
        48                         -0.0336046              -0.9144
       ...                                ...                  ...
        67                         10.6784182             290.5745
      -------------------------------------------------------------
                  HL-Gap            0.0428588 Eh            1.1662 eV

     #   Z          covCN         q      C6AA      α(0)
     1   6 C        3.683    -0.084    22.316     6.764
     2   7 N        2.725     0.078    19.897     6.625
     3   6 C        2.931     0.090    25.990     8.361
     4   7 N        1.851    -0.243    27.205     7.730
     5   6 C        2.819     0.054    26.780     8.479
     6   6 C        3.863     0.099    18.906     6.183
     7   6 C        2.817     0.264    22.555     7.781
     8   8 O        0.857    -0.332    20.368     6.051
     9   7 N        2.783    -0.080    22.791     7.090
    10   6 C        3.691    -0.060    21.850     6.689
    11   6 C        2.802     0.326    21.474     7.592
    12   8 O        0.857    -0.331    20.354     6.049
    13   7 N        2.769    -0.107    23.337     7.175
    14   6 C        3.688    -0.062    21.887     6.696
    15   1 H        0.924     0.131     1.526     1.932
    16   1 H        0.924     0.140     1.464     1.892
    17   1 H        0.924     0.146     1.420     1.864
    18   1 H        0.965     0.169     1.269     1.760
    19   1 H        0.925     0.105     1.738     2.062
    20   1 H        0.924     0.101     1.774     2.083
    21   1 H        0.925     0.111     1.688     2.032
    22   1 H        0.925     0.075     2.029     2.228
    23   1 H        0.924     0.078     1.997     2.210
    24   1 H        0.925     0.120     1.610     1.984
    25   1 H        0.860     0.211     1.049     1.605

Wiberg/Mayer (AO) data.
largest (>0.10) Wiberg bond orders for each atom

     #   Z sym  total        # sym  WBO       # sym  WBO       # sym  WBO
 ---------------------------------------------------------------------------
     1   6 C    3.916 --     2 N    1.029    16 H    0.948    15 H    0.934
                            17 H    0.912
     2   7 N    3.618 --     3 C    1.567     1 C    1.029     6 C    0.812
     3   6 C    3.791 --     2 N    1.567     5 C    1.072     6 C    0.890
     4   7 N    2.904 --     5 C    1.829    25 H    0.923
     5   6 C    3.907 --     4 N    1.829     3 C    1.072    18 H    0.955
     6   6 C    3.888 --    13 N    1.069     7 C    0.908     3 C    0.890
                             2 N    0.812
     7   6 C    3.964 --     8 O    1.751     9 N    1.198     6 C    0.908
     8   8 O    2.090 --     7 C    1.751     9 N    0.174
     9   7 N    3.553 --     7 C    1.198    11 C    1.037    10 C    0.974
                             8 O    0.174    12 O    0.108
    10   6 C    3.909 --     9 N    0.974    19 H    0.968    21 H    0.967
                            20 H    0.956
    11   6 C    3.959 --    12 O    1.747    13 N    1.087     9 N    1.037
    12   8 O    2.097 --    11 C    1.747    13 N    0.142     9 N    0.108
    13   7 N    3.428 --    11 C    1.087     6 C    1.069    14 C    0.982
                            12 O    0.142
    14   6 C    3.928 --    13 N    0.982    22 H    0.971    24 H    0.967
                            23 H    0.967
    15   1 H    0.977 --     1 C    0.934
    16   1 H    0.977 --     1 C    0.948
    17   1 H    0.971 --     1 C    0.912
    18   1 H    0.969 --     5 C    0.955
    19   1 H    0.984 --    10 C    0.968
    20   1 H    0.978 --    10 C    0.956
    21   1 H    0.984 --    10 C    0.967
    22   1 H    0.988 --    14 C    0.971
    23   1 H    0.985 --    14 C    0.967
    24   1 H    0.985 --    14 C    0.967
    25   1 H    0.949 --     4 N    0.923
 ---------------------------------------------------------------------------

molecular dipole:
                 x           y           z       tot (Debye)
 q only:        2.040      -1.133       0.244
   full:        2.153      -1.402      -0.010       6.529

           -------------------------------------------------
          | TOTAL ENERGY              -59.677395673140 Eh   |
          | GRADIENT NORM               0.003417933404 Eh/α |
          | HOMO-LUMO GAP               1.166248131621 eV   |
           -------------------------------------------------

 * finished run on 2024/06/05 at 19:58:12.382
