   * xtb version 6.6.1 (8d0f1dd) compiled by 'conda@1efc2f54142f' on 2023-08-01
          program call               : xtb xtbopt.xyz --opt crude --input .xc2 --gfn2

   ID    Z sym.   atoms
    1    6 C      1, 3, 5-7, 10, 11, 14
    2    7 N      2, 4, 9, 13
    3    8 O      8, 12
    4    1 H      15-25
########################################################################
[WARNING] Please study the warnings concerning your input carefully
-1- readin_getIntValue: could not parse ''
########################################################################

          :  Hamiltonian                  GFN2-xTB          :
 * total energy  :   -40.3626122 Eh     change       -0.2344791E-12 Eh
 * total energy  :   -42.0554519 Eh     change       -0.1692840E+01 Eh
 * total energy  :   -42.0859503 Eh     change       -0.3049847E-01 Eh
 * total energy  :   -42.0905427 Eh     change       -0.4592356E-02 Eh
 * total energy  :   -42.0931669 Eh     change       -0.2624199E-02 Eh
 * total energy  :   -42.0936455 Eh     change       -0.4785905E-03 Eh
 * total energy  :   -42.0941838 Eh     change       -0.5382724E-03 Eh
 * total energy  :   -42.0946138 Eh     change       -0.4300280E-03 Eh
 * total energy  :   -42.0949858 Eh     change       -0.3719756E-03 Eh
 * total energy  :   -42.0951411 Eh     change       -0.1552938E-03 Eh
   *** GEOMETRY OPTIMIZATION CONVERGED AFTER 10 ITERATIONS ***

 final structure:
================
25
 xtb: 6.6.1 (8d0f1dd)
C            2.53306215423874        0.19005914114248        1.33613863648366
N            1.59034767423368       -0.23107251314306        0.38834951757142
C            1.35641056647169       -0.90407234309795       -0.67432237061570
N            3.23051962321443       -2.06700971559864       -1.21675855369622
C            2.04520885257361       -1.78325652086934       -1.56223371401180
C            0.21230101642521       -0.11385933159270       -0.16931227747116
C           -0.22209615465210        1.23768572919723       -0.74050591541347
O            0.47967025088609        1.99695771348923       -1.34604713594143
N           -1.51588316823466        1.36484440711451       -0.35784487659818
C           -2.35926302477043        2.49836348035901       -0.66164686199006
C           -1.96743253252978        0.26891874300276        0.39643804967627
O           -3.05450054983567        0.12899731366429        0.85859029784925
N           -0.90062223031242       -0.61254724591576        0.50701138627406
C           -1.01181111877339       -1.90894741230636        1.13160826059975
H            2.12016942741722        0.09010475691244        2.34272559310470
H            3.44522613463430       -0.39903622785517        1.22899718229666
H            2.75593610389323        1.25039919544986        1.17416550258497
H            1.53072548869381       -2.13903019453100       -2.45676198745036
H           -1.74087355685716        3.39232210710724       -0.71817402479055
H           -2.86321782490606        2.35040098951030       -1.61797920091818
H           -3.10693293829016        2.59191476162384        0.12387497939685
H           -0.27645976448061       -2.02037156790822        1.92956155625337
H           -0.87854169305348       -2.70704510680895        0.39886756405278
H           -2.01297571646951       -1.97551941384625        1.55496706034767
H            3.77146449456009       -2.68096220351056       -1.81853704970203

          :  Hamiltonian                  GFN2-xTB          :
         :: total energy             -42.095141055969 Eh    ::
         :: gradient norm              0.008044147186 Eh/a0 ::
         :: HOMO-LUMO gap              1.240449628141 eV    ::
         :: SCC energy               -42.626967783013 Eh    ::
         :: -> dispersion             -0.021295312454 Eh    ::
         :: repulsion energy           0.531634471309 Eh    ::

    * Orbital Energies and Occupations

         #    Occupation            Energy/Eh            Energy/eV
      -------------------------------------------------------------
         1        2.0000           -0.9252284             -25.1767
       ...           ...                  ...                  ...
        25        2.0000           -0.6753954             -18.3784
        26        2.0000           -0.6746571             -18.3584
        27        2.0000           -0.6585428             -17.9199
        28        2.0000           -0.6484848             -17.6462
        29        2.0000           -0.6419070             -17.4672
        30        2.0000           -0.6387153             -17.3803
        31        2.0000           -0.6312745             -17.1779
        32        1.9999           -0.6142094             -16.7135
        33        1.9970           -0.5887815             -16.0216
        34        1.9847           -0.5758569             -15.6699
        35        1.9828           -0.5749070             -15.6440
        36        1.9625           -0.5686558             -15.4739
        37        1.9244           -0.5629602             -15.3189 (HOMO)
        38        0.1488           -0.5173745             -14.0785 (LUMO)
        39        0.0000           -0.4276801             -11.6378
        40                         -0.3849082             -10.4739
        41                         -0.3396851              -9.2433
        42                         -0.2833339              -7.7099
        43                         -0.2298707              -6.2551
        44                         -0.1839182              -5.0047
        45                         -0.1527313              -4.1560
        46                         -0.1140249              -3.1028
        47                         -0.0757374              -2.0609
        48                         -0.0358412              -0.9753
       ...                                ...                  ...
        67                          0.5773114              15.7094
      -------------------------------------------------------------
                  HL-Gap            0.0455857 Eh            1.2404 eV

     #   Z          covCN         q      C6AA      α(0)
     1   6 C        3.683    -0.081    22.276     6.758
     2   7 N        2.725     0.076    19.930     6.630
     3   6 C        2.905     0.109    25.596     8.296
     4   7 N        1.805    -0.214    26.474     7.623
     5   6 C        2.815     0.096    25.860     8.332
     6   6 C        3.864     0.099    18.908     6.184
     7   6 C        2.818     0.264    22.555     7.782
     8   8 O        0.857    -0.335    20.433     6.061
     9   7 N        2.783    -0.080    22.801     7.092
    10   6 C        3.691    -0.060    21.845     6.689
    11   6 C        2.804     0.326    21.471     7.591
    12   8 O        0.857    -0.331    20.356     6.049
    13   7 N        2.768    -0.108    23.370     7.180
    14   6 C        3.688    -0.061    21.875     6.694
    15   1 H        0.924     0.131     1.525     1.931
    16   1 H        0.924     0.137     1.479     1.902
    17   1 H        0.924     0.145     1.424     1.866
    18   1 H        0.924     0.087     1.907     2.160
    19   1 H        0.925     0.105     1.742     2.064
    20   1 H        0.924     0.101     1.776     2.084
    21   1 H        0.925     0.110     1.695     2.036
    22   1 H        0.924     0.075     2.030     2.228
    23   1 H        0.924     0.076     2.016     2.220
    24   1 H        0.925     0.120     1.611     1.985
    25   1 H        0.860     0.213     1.042     1.599

Wiberg/Mayer (AO) data.
largest (>0.10) Wiberg bond orders for each atom

     #   Z sym  total        # sym  WBO       # sym  WBO       # sym  WBO
 ---------------------------------------------------------------------------
     1   6 C    3.918 --     2 N    1.030    16 H    0.949    15 H    0.934
                            17 H    0.912
     2   7 N    3.619 --     3 C    1.552     1 C    1.030     6 C    0.809
     3   6 C    3.813 --     2 N    1.552     5 C    1.116     6 C    0.898
     4   7 N    2.950 --     5 C    1.841    25 H    0.925
     5   6 C    3.934 --     4 N    1.841     3 C    1.116    18 H    0.932
     6   6 C    3.889 --    13 N    1.068     7 C    0.909     3 C    0.898
                             2 N    0.809
     7   6 C    3.965 --     8 O    1.748     9 N    1.202     6 C    0.909
     8   8 O    2.089 --     7 C    1.748     9 N    0.175
     9   7 N    3.555 --     7 C    1.202    11 C    1.035    10 C    0.974
                             8 O    0.175    12 O    0.107
    10   6 C    3.911 --     9 N    0.974    19 H    0.969    21 H    0.968
                            20 H    0.957
    11   6 C    3.959 --    12 O    1.748    13 N    1.088     9 N    1.035
    12   8 O    2.101 --    11 C    1.748    13 N    0.144     9 N    0.107
    13   7 N    3.432 --    11 C    1.088     6 C    1.068    14 C    0.981
                            12 O    0.144
    14   6 C    3.929 --    13 N    0.981    22 H    0.972    23 H    0.969
                            24 H    0.967
    15   1 H    0.977 --     1 C    0.934
    16   1 H    0.978 --     1 C    0.949
    17   1 H    0.971 --     1 C    0.912
    18   1 H    0.983 --     5 C    0.932
    19   1 H    0.985 --    10 C    0.969
    20   1 H    0.979 --    10 C    0.957
    21   1 H    0.984 --    10 C    0.968
    22   1 H    0.988 --    14 C    0.972
    23   1 H    0.987 --    14 C    0.969
    24   1 H    0.985 --    14 C    0.967
    25   1 H    0.949 --     4 N    0.925
 ---------------------------------------------------------------------------

molecular dipole:
                 x           y           z       tot (Debye)
 q only:        2.096      -1.103       0.318
   full:        2.134      -1.379       0.012       6.458

           -------------------------------------------------
          | TOTAL ENERGY              -42.095141055969 Eh   |
          | GRADIENT NORM               0.008044147186 Eh/α |
          | HOMO-LUMO GAP               1.240449628141 eV   |
           -------------------------------------------------

 * finished run on 2024/06/05 at 19:58:12.791
