   * xtb version 6.6.1 (8d0f1dd) compiled by 'conda@1efc2f54142f' on 2023-08-01
          program call               : xtb xtbopt.xyz --opt crude --input .xc2 --gfn2

   ID    Z sym.   atoms
    1    6 C      1, 3, 5-7, 10, 11, 14
    2    7 N      2, 4, 9, 13
    3    8 O      8, 12
    4    1 H      15-25
########################################################################
[WARNING] Please study the warnings concerning your input carefully
-1- readin_getIntValue: could not parse ''
########################################################################

          :  Hamiltonian                  GFN2-xTB          :
 * total energy  :   -40.4172663 Eh     change       -0.2344791E-12 Eh
 * total energy  :   -42.1199514 Eh     change       -0.1702685E+01 Eh
 * total energy  :   -42.1429607 Eh     change       -0.2300932E-01 Eh
 * total energy  :   -42.1486985 Eh     change       -0.5737773E-02 Eh
 * total energy  :   -42.1511213 Eh     change       -0.2422776E-02 Eh
 * total energy  :   -42.1515772 Eh     change       -0.4559173E-03 Eh
 * total energy  :   -42.1522873 Eh     change       -0.7100707E-03 Eh
 * total energy  :   -42.1534497 Eh     change       -0.1162472E-02 Eh
 * total energy  :   -42.1538457 Eh     change       -0.3959514E-03 Eh
 * total energy  :   -42.1540709 Eh     change       -0.2252417E-03 Eh
   *** GEOMETRY OPTIMIZATION CONVERGED AFTER 10 ITERATIONS ***

 final structure:
================
25
 xtb: 6.6.1 (8d0f1dd)
C            3.12153807736418        1.20145150771866       -0.13763063640080
N            2.14831874728044        0.14290996465593       -0.07056081473050
C            2.39791074841271       -1.13115565782183        0.20847619466268
N            1.24017201538447       -1.81707180329072        0.21565954204300
C            0.22396785218660       -0.94572117344843       -0.07423456210187
C            0.80602625913511        0.28812620566387       -0.27211229498897
C            0.08982943882589        1.55875149924023       -0.62730203677325
O            0.41473165601162        2.63818957194926       -0.15593714132191
N           -1.52883149410207        1.04044893700046        0.17193383330660
C           -2.18057207252662        2.01186485531367        0.68061405141351
C           -2.06926396060032       -0.26169079546452        0.09126702503960
O           -3.23954912841062       -0.50609279521067        0.17493204654675
N           -1.10741652291153       -1.25004574178207       -0.08263696277539
C           -1.53866698515399       -2.63586626268253       -0.12983845720737
H            3.88337954276709        1.05192196544852        0.62501316478549
H            3.59874133159778        1.22045371354986       -1.11899605443859
H            2.61637395550833        2.15393311863366        0.02639690195686
H            3.36583850904709       -1.55290089464454        0.39475672442524
H           -1.68549545653731        2.97549496834456        0.69294746601618
H           -0.37237673012954        1.48955574983718       -1.63862655416632
H           -3.17400994457963        1.89277401130233        1.09375776501826
H           -1.33178145331511       -3.14662305612419        0.81267088639306
H           -1.04927621309522       -3.15218972210108       -0.95500552795486
H           -2.61550533225173       -2.64190580580855       -0.29261825214485
H            1.14634867419166       -2.80637381867829        0.39824531129872

          :  Hamiltonian                  GFN2-xTB          :
         :: total energy             -42.154070931410 Eh    ::
         :: gradient norm              0.004736338441 Eh/a0 ::
         :: HOMO-LUMO gap              2.136402131412 eV    ::
         :: SCC energy               -42.680921014385 Eh    ::
         :: -> dispersion             -0.023063547278 Eh    ::
         :: repulsion energy           0.526678672266 Eh    ::

    * Orbital Energies and Occupations

         #    Occupation            Energy/Eh            Energy/eV
      -------------------------------------------------------------
         1        2.0000           -0.9108650             -24.7859
       ...           ...                  ...                  ...
        25        2.0000           -0.6729468             -18.3118
        26        2.0000           -0.6666575             -18.1407
        27        1.9999           -0.6548527             -17.8194
        28        1.9998           -0.6351832             -17.2842
        29        1.9998           -0.6341247             -17.2554
        30        1.9997           -0.6258011             -17.0289
        31        1.9995           -0.6207179             -16.8906
        32        1.9994           -0.6171321             -16.7930
        33        1.9992           -0.6128792             -16.6773
        34        1.9963           -0.5877746             -15.9942
        35        1.9789           -0.5602336             -15.2447
        36        1.9504           -0.5464316             -14.8692
        37        1.8669           -0.5301268             -14.4255 (HOMO)
        38        0.1794           -0.4516155             -12.2891 (LUMO)
        39        0.0257           -0.4195449             -11.4164
        40        0.0049           -0.3933059             -10.7024
        41        0.0001           -0.3295795              -8.9683
        42        0.0001           -0.3249592              -8.8426
        43                         -0.1916846              -5.2160
        44                         -0.1855794              -5.0499
        45                         -0.1427222              -3.8837
        46                         -0.0792606              -2.1568
        47                         -0.0668704              -1.8196
        48                         -0.0462422              -1.2583
       ...                                ...                  ...
        67                          0.5382806              14.6474
      -------------------------------------------------------------
                  HL-Gap            0.0785113 Eh            2.1364 eV

     #   Z          covCN         q      C6AA      α(0)
     1   6 C        3.692    -0.094    22.484     6.785
     2   7 N        2.850     0.088    19.707     6.593
     3   6 C        3.053     0.047    26.891     8.505
     4   7 N        2.808    -0.056    22.318     7.017
     5   6 C        3.037     0.105    25.655     8.308
     6   6 C        3.108    -0.005    27.998     8.669
     7   6 C        3.343     0.210    21.362     7.302
     8   8 O        0.856    -0.388    21.447     6.209
     9   7 N        2.415    -0.131    23.952     7.267
    10   6 C        2.792     0.048    26.906     8.497
    11   6 C        2.731     0.327    21.440     7.581
    12   8 O        0.858    -0.340    20.519     6.073
    13   7 N        2.738    -0.059    22.381     7.026
    14   6 C        3.699    -0.072    22.045     6.715
    15   1 H        0.925     0.105     1.743     2.065
    16   1 H        0.924     0.108     1.709     2.045
    17   1 H        0.924     0.138     1.479     1.902
    18   1 H        0.926     0.125     1.574     1.962
    19   1 H        0.925     0.144     1.436     1.874
    20   1 H        0.921     0.061     2.190     2.314
    21   1 H        0.925     0.125     1.576     1.963
    22   1 H        0.924     0.080     1.981     2.201
    23   1 H        0.925     0.081     1.966     2.193
    24   1 H        0.925     0.123     1.589     1.971
    25   1 H        0.860     0.230     0.963     1.537

Wiberg/Mayer (AO) data.
largest (>0.10) Wiberg bond orders for each atom

     #   Z sym  total        # sym  WBO       # sym  WBO       # sym  WBO
 ---------------------------------------------------------------------------
     1   6 C    3.914 --     2 N    0.984    15 H    0.968    17 H    0.957
                            16 H    0.955
     2   7 N    3.715 --     3 C    1.382     6 C    1.204     1 C    0.984
     3   6 C    3.890 --     2 N    1.382     4 N    1.297    18 H    0.952
     4   7 N    3.602 --     3 C    1.297     5 C    1.185    25 H    0.917
     5   6 C    3.936 --     6 C    1.422     4 N    1.185    13 N    1.141
     6   6 C    3.895 --     5 C    1.422     2 N    1.204     7 C    0.959
     7   6 C    3.941 --     8 O    1.627     6 C    0.959    20 H    0.888
                             9 N    0.392
     8   8 O    1.916 --     7 C    1.627     9 N    0.138
     9   7 N    3.421 --    10 C    1.747    11 C    1.010     7 C    0.392
                             8 O    0.138
    10   6 C    3.723 --     9 N    1.747    21 H    0.944    19 H    0.943
    11   6 C    3.919 --    12 O    1.728    13 N    1.096     9 N    1.010
    12   8 O    2.050 --    11 C    1.728    13 N    0.143
    13   7 N    3.519 --     5 C    1.141    11 C    1.096    14 C    0.975
                            12 O    0.143
    14   6 C    3.928 --    13 N    0.975    23 H    0.974    22 H    0.969
                            24 H    0.965
    15   1 H    0.988 --     1 C    0.968
    16   1 H    0.987 --     1 C    0.955
    17   1 H    0.980 --     1 C    0.957
    18   1 H    0.983 --     3 C    0.952
    19   1 H    0.976 --    10 C    0.943
    20   1 H    0.956 --     7 C    0.888
    21   1 H    0.978 --    10 C    0.944
    22   1 H    0.990 --    14 C    0.969
    23   1 H    0.990 --    14 C    0.974
    24   1 H    0.984 --    14 C    0.965
    25   1 H    0.946 --     4 N    0.917
 ---------------------------------------------------------------------------

molecular dipole:
                 x           y           z       tot (Debye)
 q only:        2.234      -1.738       0.184
   full:        2.257      -2.160       0.179       7.954

           -------------------------------------------------
          | TOTAL ENERGY              -42.154070931410 Eh   |
          | GRADIENT NORM               0.004736338441 Eh/α |
          | HOMO-LUMO GAP               2.136402131412 eV   |
           -------------------------------------------------

 * finished run on 2024/06/05 at 20:00:28.017
