   * xtb version 6.6.1 (8d0f1dd) compiled by 'conda@1efc2f54142f' on 2023-08-01
          program call               : xtb xtbopt.xyz --opt crude --input .xc2 --gfn2

   ID    Z sym.   atoms
    1    7 N      1, 17
    2    6 C      2-6, 8, 9, 11-16, 18-23, 25, 26, 28-33
    3    8 O      7, 10, 24, 27
    4    1 H      34-72

          :  Hamiltonian                  GFN2-xTB          :
 * total energy  :   -99.3304230 Eh     change       -0.1012381E-09 Eh
   *** GEOMETRY OPTIMIZATION CONVERGED AFTER 1 ITERATIONS ***

 final structure:
================
72
 xtb: 6.6.1 (8d0f1dd)
N           -2.28088953384528        3.52332291490752        1.76754558464195
C           -2.43077243684192        2.82823645608564        0.74134781685426
C           -3.77950154271307        2.49570637571586        0.15031760988382
C           -3.92519873626166        0.96780598365848        0.11489956493173
C           -4.85139829131396        0.37796190646933       -0.74143011048088
C           -5.04285396899352       -0.99501693802507       -0.75545609187178
O           -5.91664997583417       -1.65260965463853       -1.53966390868474
C           -6.76352092819961       -0.92254133820616       -2.39736908683577
C           -4.28052135026135       -1.81561863804562        0.12164344554754
O           -4.53551435322707       -3.13565738460080        0.04476933686278
C           -3.90002347288286       -4.01446855143543        0.94291549158293
C           -3.36229335270946       -1.21456953651728        0.96959676611209
C           -3.18437071406362        0.16178410165602        0.96529861865875
C           -3.77668634249065        3.02902286728801       -1.22685027610367
C           -1.02228502948725        0.24633470904322       -1.71591403340347
C            0.18847049540027        0.38851703240809       -1.16074682199522
N            0.87164960520576       -0.55016988514557       -0.45227771339445
C            2.25378715568628       -0.33495090086058       -0.12009905485215
C            3.21815380154197       -0.83610054905156       -1.21888926589562
C            4.63587395552759       -0.53194395496549       -0.83633676834203
C            5.18650135013853        0.71485233397815       -1.10276581827010
C            6.48230870030665        1.01854050383408       -0.72008466095251
C            7.26069634831568        0.07874162867325       -0.05651741662265
O            8.52497245975420        0.25983083443758        0.36199896268395
C            9.16274870999435        1.49318950456685        0.12154235463553
C            6.70662397464007       -1.20406393420068        0.22146780022016
O            7.53112185425179       -2.05376690950625        0.85943474370436
C            7.08884371884057       -3.35611544315912        1.15950439785045
C            5.40463294604377       -1.48141085473373       -0.16883060343184
C            0.34357183033634       -1.88319325453648       -0.32932503662305
C           -5.00004332424998        3.07141365859684        0.93786443871781
C           -5.08423555427691        2.53332291807854        2.36027757110079
C           -4.96925896141673        4.59608236102278        0.94759284365780
H           -5.43526846131981        1.00098757172732       -1.39713034559883
H           -7.40442229681660       -0.23522868740682       -1.83675793549049
H           -7.38223803572163       -1.66570450583551       -2.89656954477653
H           -6.19253155675383       -0.36463370194074       -3.14606409955198
H           -4.12264508349262       -3.75552113401146        1.98206725136982
H           -4.30524651305926       -5.00009019273298        0.72188362555816
H           -2.81504194844175       -4.02785002749017        0.79403114000734
H           -2.78878886399791       -1.81216501703141        1.66029950583604
H           -2.47781198985232        0.59816725754227        1.65333657338828
H           -4.69742054749981        3.20366079974654       -1.74702959698691
H           -2.86228847922868        3.30741233144144       -1.71427417848214
H           -1.58511451140696       -0.66728823213675       -1.68867280210025
H           -1.47986855257396        1.06755777785082       -2.23353952084723
H           -1.60255495694099        2.41314554239439        0.14803778994357
H            0.70353121975238        1.33660034124810       -1.23704327666240
H            2.47974196792478       -0.85401876697353        0.81605429312907
H            2.42122925886393        0.73342578277505        0.03582677887955
H            2.96647190243467       -0.33836489449891       -2.15689491366324
H            3.08373436152796       -1.91009521449352       -1.34974983008231
H            4.60365421138128        1.45798103700841       -1.62507976745019
H            6.88261966627445        1.99314424162113       -0.94667284394833
H            8.64263755478605        2.31644503357864        0.62110982305789
H            9.23682886915998        1.70358661217918       -0.94962573766920
H           10.16250084081299        1.39108039308862        0.53938151399611
H            7.92571416955971       -3.84129276374169        1.65758847573452
H            6.22633070259125       -3.34180707259006        1.83280036522842
H            6.83611610382003       -3.91251231573527        0.25187064457718
H            4.97760566165652       -2.45110988904810        0.03378934660829
H            0.34052096128107       -2.40887224649513       -1.28931740236558
H           -0.68228233810674       -1.83641341696485        0.03884130600602
H            0.94605308870857       -2.44640500436153        0.37948712899219
H           -5.89127493000583        2.74225650094299        0.39180025963474
H           -4.21953282002617        2.85573383087781        2.93348337197156
H           -5.13421569426610        1.44616095653649        2.37148640399133
H           -5.98047846585773        2.92136224024162        2.83844953999645
H           -4.11632539607904        4.94746271604132        1.52028087411660
H           -4.89582843304017        4.99080313808623       -0.06395443099002
H           -5.87664195641177        4.97999301430636        1.40632967739131
H           -1.33489214958886        3.72407712396046        2.07594469999200

          :  Hamiltonian                  GFN2-xTB          :
         :: total energy             -99.330422953056 Eh    ::
         :: gradient norm              0.002649377907 Eh/a0 ::
         :: HOMO-LUMO gap              0.833753016714 eV    ::
         :: SCC energy              -100.735234755562 Eh    ::
         :: -> dispersion             -0.072025025772 Eh    ::
         :: repulsion energy           1.403786879119 Eh    ::

    * Orbital Energies and Occupations

         #    Occupation            Energy/Eh            Energy/eV
      -------------------------------------------------------------
         1        2.0000           -0.8144209             -22.1615
       ...           ...                  ...                  ...
        78        1.9973           -0.5306579             -14.4399
        79        1.9971           -0.5299730             -14.4213
        80        1.9961           -0.5252057             -14.2916
        81        1.9951           -0.5214798             -14.1902
        82        1.9942           -0.5186389             -14.1129
        83        1.9926           -0.5149020             -14.0112
        84        1.9924           -0.5144621             -13.9992
        85        1.9722           -0.4937888             -13.4367
        86        1.9672           -0.4911348             -13.3645
        87        1.8929           -0.4717819             -12.8378
        88        1.8239           -0.4633126             -12.6074
        89        1.7999           -0.4610809             -12.5466
        90        1.6936           -0.4533753             -12.3370 (HOMO)
        91        0.8879           -0.4227355             -11.5032 (LUMO)
        92        0.0072           -0.3372567              -9.1772
        93        0.0023           -0.3193400              -8.6897
        94        0.0019           -0.3161968              -8.6042
        95        0.0017           -0.3147881              -8.5658
        96        0.0016           -0.3129146              -8.5148
        97        0.0003           -0.2888951              -7.8612
        98        0.0000           -0.1935749              -5.2674
        99        0.0000           -0.1896310              -5.1601
       100                         -0.0987227              -2.6864
       101                         -0.0676013              -1.8395
       ...                                ...                  ...
       171                          0.5717929              15.5593
      -------------------------------------------------------------
                  HL-Gap            0.0306399 Eh            0.8338 eV

     #   Z          covCN         q      C6AA      α(0)
     1   7 N        1.774    -0.263    27.662     7.788
     2   6 C        2.836     0.106    25.655     8.300
     3   6 C        3.911     0.024    20.112     6.374
     4   6 C        2.979     0.014    27.683     8.631
     5   6 C        2.918    -0.074    29.839     8.958
     6   6 C        2.863     0.135    25.054     8.205
     7   8 O        1.706    -0.221    17.662     5.674
     8   6 C        3.644     0.024    20.501     6.508
     9   6 C        2.863     0.131    25.124     8.216
    10   8 O        1.706    -0.223    17.693     5.679
    11   6 C        3.645     0.026    20.476     6.504
    12   6 C        2.914    -0.070    29.757     8.945
    13   6 C        2.920    -0.044    29.095     8.845
    14   6 C        2.861    -0.083    30.083     8.990
    15   6 C        2.838    -0.121    31.075     9.135
    16   6 C        2.840     0.021    27.533     8.599
    17   7 N        2.732    -0.043    22.072     6.978
    18   6 C        3.752    -0.007    20.769     6.499
    19   6 C        3.807    -0.071    21.851     6.654
    20   6 C        2.968     0.008    27.840     8.655
    21   6 C        2.922    -0.045    29.107     8.847
    22   6 C        2.913    -0.065    29.624     8.925
    23   6 C        2.864     0.135    25.039     8.202
    24   8 O        1.706    -0.215    17.569     5.659
    25   6 C        3.645     0.023    20.517     6.510
    26   6 C        2.862     0.136    25.032     8.201
    27   8 O        1.706    -0.217    17.609     5.666
    28   6 C        3.645     0.025    20.488     6.506
    29   6 C        2.919    -0.076    29.908     8.968
    30   6 C        3.700    -0.057    21.766     6.672
    31   6 C        3.855    -0.004    20.622     6.459
    32   6 C        3.755    -0.118    22.814     6.811
    33   6 C        3.755    -0.117    22.802     6.809
    34   1 H        0.926     0.061     2.193     2.316
    35   1 H        0.924     0.057     2.240     2.340
    36   1 H        0.925     0.084     1.936     2.176
    37   1 H        0.924     0.055     2.263     2.353
    38   1 H        0.924     0.057     2.237     2.339
    39   1 H        0.925     0.084     1.941     2.179
    40   1 H        0.924     0.048     2.344     2.394
    41   1 H        0.926     0.053     2.279     2.361
    42   1 H        0.926     0.048     2.345     2.395
    43   1 H        0.926     0.065     2.141     2.288
    44   1 H        0.926     0.053     2.277     2.360
    45   1 H        0.926     0.043     2.413     2.429
    46   1 H        0.926     0.046     2.376     2.411
    47   1 H        0.923     0.021     2.721     2.580
    48   1 H        0.925     0.047     2.357     2.401
    49   1 H        0.924     0.056     2.251     2.347
    50   1 H        0.924     0.059     2.216     2.328
    51   1 H        0.924     0.056     2.243     2.342
    52   1 H        0.924     0.054     2.268     2.355
    53   1 H        0.926     0.051     2.307     2.375
    54   1 H        0.926     0.061     2.188     2.313
    55   1 H        0.924     0.057     2.229     2.335
    56   1 H        0.924     0.059     2.210     2.325
    57   1 H        0.925     0.085     1.931     2.173
    58   1 H        0.925     0.084     1.937     2.176
    59   1 H        0.924     0.053     2.281     2.362
    60   1 H        0.924     0.056     2.242     2.341
    61   1 H        0.926     0.053     2.282     2.363
    62   1 H        0.924     0.061     2.184     2.311
    63   1 H        0.924     0.065     2.143     2.289
    64   1 H        0.925     0.063     2.162     2.299
    65   1 H        0.924     0.045     2.387     2.416
    66   1 H        0.925     0.068     2.113     2.273
    67   1 H        0.925     0.037     2.493     2.469
    68   1 H        0.925     0.056     2.242     2.342
    69   1 H        0.925     0.069     2.100     2.266
    70   1 H        0.925     0.042     2.427     2.436
    71   1 H        0.925     0.056     2.249     2.345
    72   1 H        0.860     0.161     1.329     1.806

Wiberg/Mayer (AO) data.
largest (>0.10) Wiberg bond orders for each atom

     #   Z sym  total        # sym  WBO       # sym  WBO       # sym  WBO
 ---------------------------------------------------------------------------
     1   7 N    3.012 --     2 C    1.960    72 H    0.938
     2   6 C    3.934 --     1 N    1.960     3 C    0.975    47 H    0.929
     3   6 C    3.960 --    14 C    1.067     2 C    0.975    31 C    0.913
                             4 C    0.910
     4   6 C    3.877 --    13 C    1.400     5 C    1.380     3 C    0.910
     5   6 C    3.952 --     6 C    1.390     4 C    1.380    34 H    0.958
     6   6 C    3.894 --     5 C    1.390     9 C    1.215     7 O    1.110
     7   8 O    2.254 --     6 C    1.110     8 C    0.975
     8   6 C    3.927 --    36 H    0.976     7 O    0.975    35 H    0.972
                            37 H    0.972
     9   6 C    3.887 --    12 C    1.385     6 C    1.215    10 O    1.107
    10   8 O    2.249 --     9 C    1.107    11 C    0.977
    11   6 C    3.929 --    10 O    0.977    39 H    0.976    40 H    0.973
                            38 H    0.973
    12   6 C    3.953 --    13 C    1.408     9 C    1.385    41 H    0.962
    13   6 C    3.934 --    12 C    1.408     4 C    1.400    42 H    0.962
    14   6 C    3.133 --     3 C    1.067    44 H    0.979    43 H    0.975
    15   6 C    3.802 --    16 C    1.727    46 H    0.976    45 H    0.974
    16   6 C    3.943 --    15 C    1.727    17 N    1.207    48 H    0.957
    17   7 N    3.361 --    16 C    1.207    30 C    1.008    18 C    1.007
    18   6 C    3.962 --    17 N    1.007    50 H    0.968    49 H    0.967
                            19 C    0.959
    19   6 C    3.971 --    20 C    1.015    52 H    0.972    51 H    0.970
                            18 C    0.959
    20   6 C    3.926 --    21 C    1.390    29 C    1.385    19 C    1.015
    21   6 C    3.929 --    22 C    1.426    20 C    1.390    53 H    0.967
    22   6 C    3.950 --    21 C    1.426    23 C    1.373    54 H    0.962
    23   6 C    3.873 --    22 C    1.373    26 C    1.209    24 O    1.118
    24   8 O    2.249 --    23 C    1.118    25 C    0.975
    25   6 C    3.924 --    57 H    0.976    24 O    0.975    55 H    0.971
                            56 H    0.971
    26   6 C    3.880 --    29 C    1.387    23 C    1.209    27 O    1.113
    27   8 O    2.251 --    26 C    1.113    28 C    0.977
    28   6 C    3.927 --    27 O    0.977    58 H    0.976    59 H    0.972
                            60 H    0.972
    29   6 C    3.950 --    26 C    1.387    20 C    1.385    61 H    0.961
    30   6 C    3.966 --    17 N    1.008    64 H    0.980    63 H    0.969
                            62 H    0.966
    31   6 C    3.942 --    32 C    1.011    33 C    1.006    65 H    0.959
                             3 C    0.913
    32   6 C    3.974 --    31 C    1.011    67 H    0.980    68 H    0.977
                            66 H    0.973
    33   6 C    3.966 --    31 C    1.006    71 H    0.979    70 H    0.976
                            69 H    0.972
    34   1 H    0.995 --     5 C    0.958
    35   1 H    0.991 --     8 C    0.972
    36   1 H    0.992 --     8 C    0.976
    37   1 H    0.991 --     8 C    0.972
    38   1 H    0.991 --    11 C    0.973
    39   1 H    0.992 --    11 C    0.976
    40   1 H    0.992 --    11 C    0.973
    41   1 H    0.994 --    12 C    0.962
    42   1 H    0.996 --    13 C    0.962
    43   1 H    0.995 --    14 C    0.975
    44   1 H    0.996 --    14 C    0.979
    45   1 H    0.998 --    15 C    0.974
    46   1 H    0.997 --    15 C    0.976
    47   1 H    0.976 --     2 C    0.929
    48   1 H    0.997 --    16 C    0.957
    49   1 H    0.992 --    18 C    0.967
    50   1 H    0.994 --    18 C    0.968
    51   1 H    0.994 --    19 C    0.970
    52   1 H    0.995 --    19 C    0.972
    53   1 H    0.996 --    21 C    0.967
    54   1 H    0.994 --    22 C    0.962
    55   1 H    0.989 --    25 C    0.971
    56   1 H    0.989 --    25 C    0.971
    57   1 H    0.992 --    25 C    0.976
    58   1 H    0.992 --    28 C    0.976
    59   1 H    0.991 --    28 C    0.972
    60   1 H    0.990 --    28 C    0.972
    61   1 H    0.996 --    29 C    0.961
    62   1 H    0.982 --    30 C    0.966
    63   1 H    0.988 --    30 C    0.969
    64   1 H    0.995 --    30 C    0.980
    65   1 H    0.988 --    31 C    0.959
    66   1 H    0.990 --    32 C    0.973
    67   1 H    0.996 --    32 C    0.980
    68   1 H    0.991 --    32 C    0.977
    69   1 H    0.989 --    33 C    0.972
    70   1 H    0.995 --    33 C    0.976
    71   1 H    0.992 --    33 C    0.979
    72   1 H    0.965 --     1 N    0.938
 ---------------------------------------------------------------------------

molecular dipole:
                 x           y           z       tot (Debye)
 q only:        0.613      -0.110      -0.119
   full:        0.923      -0.112      -0.417       2.589

           -------------------------------------------------
          | TOTAL ENERGY              -99.330422953056 Eh   |
          | GRADIENT NORM               0.002649377907 Eh/α |
          | HOMO-LUMO GAP               0.833753016714 eV   |
           -------------------------------------------------

 * finished run on 2024/04/06 at 11:13:08.792
