   * xtb version 6.6.1 (8d0f1dd) compiled by 'conda@1efc2f54142f' on 2023-08-01
          program call               : xtb struc.xyz --opt loose --input .xc1 --gfn2

   ID    Z sym.   atoms
    1    6 C      1, 3, 5-7, 10, 11, 14
    2    7 N      2, 4, 9, 13
    3    8 O      8, 12
    4    1 H      15-25
constraining bond 7 20 to    3.7133300 Å, actual value:    3.1456537 Å

          :  Hamiltonian                  GFN2-xTB          :
 * total energy  :   -42.8354495 Eh     change       -0.2401990E-09 Eh
 * total energy  :   -45.1188393 Eh     change       -0.2283390E+01 Eh
 * total energy  :   -49.0598718 Eh     change       -0.3941032E+01 Eh
 * total energy  :   -54.8744439 Eh     change       -0.5814572E+01 Eh
 * total energy  :   -57.2150809 Eh     change       -0.2340637E+01 Eh
 * total energy  :   -58.0843236 Eh     change       -0.8692427E+00 Eh
 * total energy  :   -58.8287180 Eh     change       -0.7443944E+00 Eh
 * total energy  :   -58.3945980 Eh     change        0.4341200E+00 Eh
 * total energy  :   -59.3168104 Eh     change       -0.9222124E+00 Eh
 * total energy  :   -59.4167726 Eh     change       -0.9996219E-01 Eh
 * total energy  :   -59.7523415 Eh     change       -0.3106669E-03 Eh
 * total energy  :   -59.7525523 Eh     change       -0.2107752E-03 Eh
 * total energy  :   -59.7527097 Eh     change       -0.1574376E-03 Eh
 * total energy  :   -59.7528429 Eh     change       -0.1331402E-03 Eh
 * total energy  :   -59.7529596 Eh     change       -0.1167705E-03 Eh
 * total energy  :   -59.7530743 Eh     change       -0.1146601E-03 Eh
 * total energy  :   -59.7531467 Eh     change       -0.7244384E-04 Eh
 * total energy  :   -59.7531828 Eh     change       -0.3604211E-04 Eh
 * total energy  :   -59.7532218 Eh     change       -0.3900606E-04 Eh
   *** GEOMETRY OPTIMIZATION CONVERGED AFTER 42 ITERATIONS ***

 final structure:
================
25
 xtb: 6.6.1 (8d0f1dd)
C            3.12090639555905        1.20095283761621       -0.16994732638237
N            2.14398100023342        0.14781124279522       -0.09472497736290
C            2.38864541066349       -1.12826815890202        0.21027232452001
N            1.22671204557020       -1.81494885754893        0.20414194424180
C            0.21484381824228       -0.94575680725624       -0.11957464714861
C            0.80217522333480        0.28945446151657       -0.32845354543802
C            0.05415383786274        1.57477179436335       -0.78683832581771
O            0.46406249683628        2.61552953493204       -0.19715684599419
N           -1.58205515332378        1.02850138359923        0.13312325633539
C           -2.21078897248053        2.00970763305328        0.67646988664256
C           -2.08536863192791       -0.26800938600200        0.08994627582320
O           -3.25084515018110       -0.54750771048981        0.22017278963079
N           -1.11245160637749       -1.25335474100451       -0.12437306744420
C           -1.54062419657908       -2.63773458457045       -0.14712851619942
H            3.80667784743943        1.13610006037319        0.67378793301611
H            3.69397934257103        1.12717383379235       -1.09586402172872
H            2.60578003230609        2.16138779299924       -0.13931651219156
H            3.35325616907883       -1.54296288466026        0.42627327554392
H           -1.75096455255819        2.98601134962168        0.61403069577067
H           -0.15645881777574        1.54811682498325       -1.15423465821379
H           -3.14979984420820        1.87949571474950        1.19546585820713
H           -1.32650981937268       -3.13734736094083        0.80042902754807
H           -1.05586349389812       -3.16553006538919       -0.96795950240208
H           -2.61930829626120       -2.64714528131568       -0.29967593289704
H            1.12629642934597       -2.79821008471607        0.41230622984131

          :  Hamiltonian                  GFN2-xTB          :
         :: total energy             -59.753221783514 Eh    ::
         :: gradient norm              0.003502886758 Eh/a0 ::
         :: HOMO-LUMO gap              2.413347006769 eV    ::
         :: SCC energy               -42.698065570614 Eh    ::
         :: -> dispersion             -0.023056824689 Eh    ::
         :: repulsion energy           2.259812503126 Eh    ::

    * Orbital Energies and Occupations

         #    Occupation            Energy/Eh            Energy/eV
      -------------------------------------------------------------
         1        2.0000           -0.9061634             -24.6580
       ...           ...                  ...                  ...
        25        1.9991           -0.6711810             -18.2638
        26        1.9989           -0.6674310             -18.1617
        27        1.9986           -0.6612635             -17.9939
        28        1.9955           -0.6329806             -17.2243
        29        1.9950           -0.6302329             -17.1495
        30        1.9942           -0.6269806             -17.0610
        31        1.9935           -0.6242265             -16.9861
        32        1.9908           -0.6160051             -16.7624
        33        1.9894           -0.6125410             -16.6681
        34        1.9713           -0.5886269             -16.0174
        35        1.9208           -0.5639251             -15.3452
        36        1.8442           -0.5468835             -14.8815
        37        1.7967           -0.5399361             -14.6924 (HOMO)
        38        0.3487           -0.4512472             -12.2791 (LUMO)
        39        0.1045           -0.4193446             -11.4109
        40        0.0536           -0.4028827             -10.9630
        41        0.0055           -0.3481270              -9.4730
        42        0.0025           -0.3293978              -8.9634
        43        0.0000           -0.1926183              -5.2414
        44        0.0000           -0.1873397              -5.0978
        45        0.0000           -0.1535636              -4.1787
        46        0.0000           -0.0934131              -2.5419
        47                         -0.0682979              -1.8585
        48                         -0.0451996              -1.2299
       ...                                ...                  ...
        67                         10.4770346             285.0946
      -------------------------------------------------------------
                  HL-Gap            0.0886889 Eh            2.4133 eV

     #   Z          covCN         q      C6AA      α(0)
     1   6 C        3.692    -0.093    22.470     6.783
     2   7 N        2.841     0.081    19.826     6.613
     3   6 C        3.035     0.044    26.983     8.520
     4   7 N        2.798    -0.062    22.435     7.035
     5   6 C        3.023     0.104    25.686     8.313
     6   6 C        3.089    -0.013    28.223     8.708
     7   6 C        3.197     0.149    24.293     8.034
     8   8 O        0.862    -0.384    21.355     6.196
     9   7 N        2.266    -0.144    24.439     7.338
    10   6 C        2.791     0.035    27.201     8.543
    11   6 C        2.728     0.322    21.524     7.595
    12   8 O        0.858    -0.340    20.517     6.073
    13   7 N        2.737    -0.054    22.289     7.012
    14   6 C        3.700    -0.071    22.032     6.713
    15   1 H        0.925     0.106     1.727     2.055
    16   1 H        0.924     0.107     1.718     2.050
    17   1 H        0.924     0.139     1.470     1.896
    18   1 H        0.926     0.122     1.594     1.974
    19   1 H        0.926     0.136     1.491     1.909
    20   1 H        0.939     0.171     1.257     1.753
    21   1 H        0.926     0.121     1.607     1.982
    22   1 H        0.924     0.084     1.942     2.180
    23   1 H        0.925     0.085     1.926     2.170
    24   1 H        0.925     0.126     1.563     1.955
    25   1 H        0.860     0.228     0.974     1.546

Wiberg/Mayer (AO) data.
largest (>0.10) Wiberg bond orders for each atom

     #   Z sym  total        # sym  WBO       # sym  WBO       # sym  WBO
 ---------------------------------------------------------------------------
     1   6 C    3.904 --     2 N    0.987    15 H    0.962    16 H    0.953
                            17 H    0.953
     2   7 N    3.662 --     3 C    1.348     6 C    1.195     1 C    0.987
     3   6 C    3.796 --     2 N    1.348     4 N    1.280    18 H    0.953
     4   7 N    3.558 --     3 C    1.280     5 C    1.172    25 H    0.918
     5   6 C    3.888 --     6 C    1.394     4 N    1.172    13 N    1.152
     6   6 C    3.789 --     5 C    1.394     2 N    1.195     7 C    0.924
     7   6 C    3.868 --     8 O    1.588    20 H    0.938     6 C    0.924
                             9 N    0.343
     8   8 O    1.821 --     7 C    1.588     9 N    0.116
     9   7 N    3.299 --    10 C    1.658    11 C    1.056     7 C    0.343
                             8 O    0.116
    10   6 C    3.601 --     9 N    1.658    19 H    0.942    21 H    0.937
    11   6 C    3.873 --    12 O    1.680    13 N    1.064     9 N    1.056
    12   8 O    1.956 --    11 C    1.680    13 N    0.118
    13   7 N    3.462 --     5 C    1.152    11 C    1.064    14 C    0.981
                            12 O    0.118
    14   6 C    3.914 --    13 N    0.981    23 H    0.969    22 H    0.962
                            24 H    0.960
    15   1 H    0.983 --     1 C    0.962
    16   1 H    0.981 --     1 C    0.953
    17   1 H    0.977 --     1 C    0.953
    18   1 H    0.984 --     3 C    0.953
    19   1 H    0.971 --    10 C    0.942
    20   1 H    0.954 --     7 C    0.938
    21   1 H    0.966 --    10 C    0.937
    22   1 H    0.980 --    14 C    0.962
    23   1 H    0.983 --    14 C    0.969
    24   1 H    0.979 --    14 C    0.960
    25   1 H    0.947 --     4 N    0.918
 ---------------------------------------------------------------------------

molecular dipole:
                 x           y           z       tot (Debye)
 q only:        2.199      -1.669      -0.022
   full:        2.241      -2.044       0.062       7.711

           -------------------------------------------------
          | TOTAL ENERGY              -59.753221783514 Eh   |
          | GRADIENT NORM               0.003502886758 Eh/α |
          | HOMO-LUMO GAP               2.413347006769 eV   |
           -------------------------------------------------

 * finished run on 2024/06/05 at 19:59:00.551
