   * xtb version 6.6.1 (8d0f1dd) compiled by 'conda@1efc2f54142f' on 2023-08-01
          program call               : xtb xtbopt.xyz --opt crude --input .xc2 --gfn2

   ID    Z sym.   atoms
    1    6 C      1, 3, 5-7, 10, 11, 14
    2    7 N      2, 4, 9, 13
    3    8 O      8, 12
    4    1 H      15-25
########################################################################
[WARNING] Please study the warnings concerning your input carefully
-1- readin_getIntValue: could not parse ''
########################################################################

          :  Hamiltonian                  GFN2-xTB          :
 * total energy  :   -40.4380848 Eh     change       -0.1918465E-12 Eh
 * total energy  :   -42.1443934 Eh     change       -0.1706309E+01 Eh
 * total energy  :   -42.1640114 Eh     change       -0.1961802E-01 Eh
 * total energy  :   -42.1689712 Eh     change       -0.4959784E-02 Eh
 * total energy  :   -42.1715383 Eh     change       -0.2567132E-02 Eh
 * total energy  :   -42.1720559 Eh     change       -0.5175956E-03 Eh
 * total energy  :   -42.1731992 Eh     change       -0.1143284E-02 Eh
 * total energy  :   -42.1742683 Eh     change       -0.1069175E-02 Eh
 * total energy  :   -42.1752523 Eh     change       -0.9839360E-03 Eh
 * total energy  :   -42.1759423 Eh     change       -0.6900130E-03 Eh
 * total energy  :   -42.1762195 Eh     change       -0.2771936E-03 Eh
 * total energy  :   -42.1765229 Eh     change       -0.3034539E-03 Eh
 * total energy  :   -42.1768258 Eh     change       -0.3028983E-03 Eh
 * total energy  :   -42.1771649 Eh     change       -0.3390965E-03 Eh
 * total energy  :   -42.1775473 Eh     change       -0.3823974E-03 Eh
 * total energy  :   -42.1778160 Eh     change       -0.2686412E-03 Eh
 * total energy  :   -42.1779720 Eh     change       -0.1559860E-03 Eh
   *** GEOMETRY OPTIMIZATION CONVERGED AFTER 17 ITERATIONS ***

 final structure:
================
25
 xtb: 6.6.1 (8d0f1dd)
C            3.05587658870027        1.24848607160944       -0.11419196189934
N            2.13879070176507        0.14268231377291       -0.05252880024207
C            2.43551341672918       -1.14146075506234        0.17688258115898
N            1.29626591227688       -1.87455085423268        0.17192593749309
C            0.25299997190670       -1.01978014260259       -0.07321818601456
C            0.79237530100595        0.23534327636130       -0.21969072696291
C           -0.05887419767630        1.45082962643228       -0.52444877361550
O            0.38449499185919        2.58305745770480       -0.13793871204711
N           -1.42371706595318        1.07459237845949        0.12922263245418
C           -2.11348515425178        2.06643044688514        0.64551407514833
C           -1.98110389389978       -0.22593708993914        0.09905385720301
O           -3.15859051317548       -0.41483950631615        0.26534054386672
N           -1.08563336044707       -1.27665355715272       -0.09546392638056
C           -1.59565930295830       -2.63249180867102       -0.14026941035013
H            3.75314510819555        1.20836205722709        0.72032641700375
H            3.61814652155215        1.22739957343326       -1.04965510042081
H            2.47279048050035        2.17162074987281       -0.06537555155260
H            3.41713501672078       -1.53601988612129        0.34712120991943
H           -1.65076596129147        3.04004384725193        0.63780976920508
H           -0.32438058583654        1.39038535955150       -1.61313394392700
H           -3.09113035292296        1.88160741355080        1.05508614009881
H           -1.39579009163686       -3.16013908197760        0.79479967113334
H           -1.14645997028392       -3.16970349867744       -0.97541122015398
H           -2.67442950226510       -2.58049669401255       -0.28195363441382
H            1.24291745548640       -2.87052915574829        0.33136873119590

          :  Hamiltonian                  GFN2-xTB          :
         :: total energy             -42.177971956172 Eh    ::
         :: gradient norm              0.007377331851 Eh/a0 ::
         :: HOMO-LUMO gap              1.894017981816 eV    ::
         :: SCC energy               -42.683518756298 Eh    ::
         :: -> dispersion             -0.022919062300 Eh    ::
         :: repulsion energy           0.505381408502 Eh    ::

    * Orbital Energies and Occupations

         #    Occupation            Energy/Eh            Energy/eV
      -------------------------------------------------------------
         1        2.0000           -0.9085694             -24.7234
       ...           ...                  ...                  ...
        25        1.9993           -0.6762367             -18.4013
        26        1.9991           -0.6688141             -18.1994
        27        1.9983           -0.6538014             -17.7908
        28        1.9961           -0.6343041             -17.2603
        29        1.9955           -0.6311806             -17.1753
        30        1.9948           -0.6277985             -17.0833
        31        1.9925           -0.6190664             -16.8457
        32        1.9921           -0.6177353             -16.8094
        33        1.9903           -0.6127506             -16.6738
        34        1.9735           -0.5888430             -16.0232
        35        1.9030           -0.5571062             -15.1596
        36        1.8451           -0.5452720             -14.8376
        37        1.7056           -0.5281483             -14.3716 (HOMO)
        38        0.4723           -0.4585444             -12.4776 (LUMO)
        39        0.1122           -0.4193789             -11.4119
        40        0.0285           -0.3857819             -10.4977
        41        0.0042           -0.3401020              -9.2546
        42        0.0000           -0.2269022              -6.1743
        43        0.0000           -0.1984983              -5.4014
        44        0.0000           -0.1785468              -4.8585
        45        0.0000           -0.1540255              -4.1912
        46                         -0.0791085              -2.1527
        47                         -0.0692061              -1.8832
        48                         -0.0492814              -1.3410
       ...                                ...                  ...
        67                          0.5014273              13.6445
      -------------------------------------------------------------
                  HL-Gap            0.0696039 Eh            1.8940 eV

     #   Z          covCN         q      C6AA      α(0)
     1   6 C        3.691    -0.095    22.500     6.788
     2   7 N        2.837     0.083    19.799     6.609
     3   6 C        3.059     0.041    27.032     8.526
     4   7 N        2.797    -0.062    22.429     7.034
     5   6 C        3.039     0.097    25.809     8.333
     6   6 C        3.123    -0.008    28.021     8.669
     7   6 C        3.657     0.216    17.468     5.999
     8   8 O        0.856    -0.445    22.599     6.374
     9   7 N        2.725    -0.047    22.154     6.991
    10   6 C        2.799     0.006    27.881     8.650
    11   6 C        2.732     0.308    21.768     7.639
    12   8 O        0.859    -0.339    20.506     6.071
    13   7 N        2.737    -0.056    22.316     7.016
    14   6 C        3.697    -0.070    22.021     6.712
    15   1 H        0.925     0.107     1.721     2.051
    16   1 H        0.924     0.109     1.707     2.043
    17   1 H        0.924     0.147     1.415     1.860
    18   1 H        0.926     0.124     1.583     1.968
    19   1 H        0.926     0.151     1.385     1.841
    20   1 H        0.919     0.070     2.089     2.260
    21   1 H        0.926     0.135     1.496     1.912
    22   1 H        0.924     0.087     1.908     2.160
    23   1 H        0.925     0.087     1.908     2.160
    24   1 H        0.925     0.125     1.570     1.959
    25   1 H        0.860     0.228     0.972     1.544

Wiberg/Mayer (AO) data.
largest (>0.10) Wiberg bond orders for each atom

     #   Z sym  total        # sym  WBO       # sym  WBO       # sym  WBO
 ---------------------------------------------------------------------------
     1   6 C    3.894 --     2 N    0.985    15 H    0.961    16 H    0.952
                            17 H    0.946
     2   7 N    3.665 --     3 C    1.340     6 C    1.209     1 C    0.985
     3   6 C    3.783 --     2 N    1.340     4 N    1.271    18 H    0.953
     4   7 N    3.551 --     3 C    1.271     5 C    1.176    25 H    0.920
     5   6 C    3.897 --     6 C    1.407     4 N    1.176    13 N    1.142
     6   6 C    3.822 --     5 C    1.407     2 N    1.209     7 C    0.935
     7   6 C    3.939 --     8 O    1.291     6 C    0.935    20 H    0.862
                             9 N    0.779
     8   8 O    1.472 --     7 C    1.291
     9   7 N    3.503 --    10 C    1.492    11 C    1.022     7 C    0.779
    10   6 C    3.464 --     9 N    1.492    21 H    0.951    19 H    0.945
    11   6 C    3.875 --    12 O    1.686    13 N    1.084     9 N    1.022
    12   8 O    1.968 --    11 C    1.686    13 N    0.125
    13   7 N    3.473 --     5 C    1.142    11 C    1.084    14 C    0.977
                            12 O    0.125
    14   6 C    3.914 --    13 N    0.977    23 H    0.969    22 H    0.963
                            24 H    0.962
    15   1 H    0.983 --     1 C    0.961
    16   1 H    0.980 --     1 C    0.952
    17   1 H    0.974 --     1 C    0.946
    18   1 H    0.983 --     3 C    0.953
    19   1 H    0.972 --    10 C    0.945
    20   1 H    0.915 --     7 C    0.862
    21   1 H    0.976 --    10 C    0.951
    22   1 H    0.981 --    14 C    0.963
    23   1 H    0.984 --    14 C    0.969
    24   1 H    0.980 --    14 C    0.962
    25   1 H    0.947 --     4 N    0.920
 ---------------------------------------------------------------------------

molecular dipole:
                 x           y           z       tot (Debye)
 q only:        1.986      -1.916       0.087
   full:        2.107      -2.372       0.014       8.064

           -------------------------------------------------
          | TOTAL ENERGY              -42.177971956172 Eh   |
          | GRADIENT NORM               0.007377331851 Eh/α |
          | HOMO-LUMO GAP               1.894017981816 eV   |
           -------------------------------------------------

 * finished run on 2024/06/05 at 19:59:01.153
