   * xtb version 6.6.1 (8d0f1dd) compiled by 'conda@1efc2f54142f' on 2023-08-01
          program call               : xtb xtbopt.xyz --opt crude --input .xc2 --gfn2

   ID    Z sym.   atoms
    1    7 N      1, 17
    2    6 C      2-6, 8, 9, 11-16, 18-23, 25, 26, 28-33
    3    8 O      7, 10, 24, 27
    4    1 H      34-72

          :  Hamiltonian                  GFN2-xTB          :
 * total energy  :   -99.2520089 Eh     change       -0.5599077E-11 Eh
   *** GEOMETRY OPTIMIZATION CONVERGED AFTER 1 ITERATIONS ***

 final structure:
================
72
 xtb: 6.6.1 (8d0f1dd)
N           -1.91069980628239        2.79925456730530        2.22112692532332
C           -1.83587995297771        2.11102315487296        1.17940535752312
C           -2.99017160737788        1.87750874666097        0.23497619168639
C           -3.45414679850863        0.42991817778264        0.35538568745630
C           -4.35203905001566       -0.08283624347083       -0.55371819179233
C           -4.81820993697704       -1.37349982204560       -0.53143789557843
O           -5.72493543044423       -1.86704668020797       -1.39773503473354
C           -6.26948788447048       -0.93243740743277       -2.30070909671999
C           -4.32816449797448       -2.25364639236772        0.47923183688985
O           -4.81060515937563       -3.51122207361165        0.43813611884360
C           -4.46935831272758       -4.41087901852887        1.46662970941750
C           -3.42568846497455       -1.74939576203356        1.40527506826957
C           -2.99787565229116       -0.42925262697118        1.35383527251565
C           -2.46951504235479        2.11042870654252       -1.20690387298160
C           -1.52188177286193        1.01671107607951       -1.73137933275272
C           -0.17701766409985        1.03891612820187       -1.11485372293860
N            0.49870593692984       -0.02892012394188       -0.70334579897530
C            1.87719498002130        0.09000556824201       -0.28927448639784
C            2.85477610284314       -0.36101074259897       -1.39174324980811
C            4.27166541591476       -0.14919342469090       -0.93521458828024
C            4.90811564928786        1.06217769271270       -1.15083440761149
C            6.20572508810118        1.27200940496350       -0.70984612273841
C            6.89301746534315        0.27213536504854       -0.03733805451279
O            8.15186916409180        0.36092302050796        0.43116818183200
C            8.88233128180572        1.54736863955146        0.22110768768215
C            6.24625229818730       -0.97331413294266        0.19407275802925
O            6.98706570268600       -1.88757809205823        0.85204285198030
C            6.44851421982813       -3.16383071178509        1.10047862260615
C            4.94838950570919       -1.15923898224911       -0.25501945221953
C           -0.07574484630387       -1.35276208960329       -0.72563341114483
C           -4.15961649522108        2.82531753074897        0.55486166940124
C           -4.89089706978530        2.47073950847747        1.82437869760566
C           -3.84186764466107        4.29804424694358        0.46825335333088
H           -5.71854386760804        2.59983014468013       -1.19324626899032
H           -6.74482775543613       -0.10592873534462       -1.76353107005821
H           -7.00977223435658       -1.46750207641426       -2.89008828408357
H           -5.49220610951079       -0.52627873834622       -2.95567765997354
H           -4.76726859562408       -4.02920447855536        2.44774001720760
H           -5.02082537160958       -5.32410657613389        1.25143671771204
H           -3.39621179068665       -4.62860593168705        1.46947063642676
H           -3.05276602065258       -2.38557052780224        2.19245352822278
H           -2.31604070526976       -0.06792919060591        2.11009831085838
H           -3.33690127008039        2.13462112701777       -1.86721151940479
H           -1.96643630933849        3.07638496039568       -1.26047289752662
H           -2.00116620083333        0.04561473339926       -1.62390680345200
H           -1.39459858784656        1.20558111897443       -2.80534285924311
H           -0.91577123347121        1.61768764302377        0.82216755889285
H            0.35739484370096        1.97758102726508       -1.11377177650851
H            2.03532870408775       -0.51857942494843        0.60536808908487
H            2.08939813362171        1.13071531430108       -0.03560898495783
H            2.66277895640103        0.22492033860203       -2.29217368739919
H            2.68690515377417       -1.41370498247504       -1.62200012730357
H            4.39909917981146        1.85354946523505       -1.67992812120826
H            6.67706998270301        2.22209647444879       -0.90067348873576
H            8.40844356408375        2.40246875281436        0.71275673233954
H            9.00374523915038        1.75942754484426       -0.84534568599031
H            9.85918530059366        1.37109924112867        0.66732265017494
H            7.23267199570259       -3.71623075489365        1.61458091808474
H            5.56474157511470       -3.10856526861340        1.74434067956269
H            6.19307547211800       -3.68018580676706        0.16994855262042
H            4.45325384991737       -2.10381598145365       -0.09195297427477
H           -0.22899666191846       -1.70033498125034       -1.74962248741722
H           -1.03697194704148       -1.36160595823682       -0.20589915960774
H            0.59586076737891       -2.04314118949129       -0.22173117524378
H           -5.01044878973346        2.64374113069255       -0.38539401773225
H           -4.20824246350143        2.60598498385133        2.66423264491228
H           -5.23137711213431        1.43820462028162        1.81913119963615
H           -5.74728066387703        3.12413649221652        1.96894961234354
H           -3.10994168809620        4.54938398138083        1.23609986037530
H           -3.44627144625996        4.58237467256292       -0.50304706185376
H           -4.73882418980022        4.88331213501876        0.65495135091826
H           -1.07056582754123        2.90029701528571        2.78146262298515

          :  Hamiltonian                  GFN2-xTB          :
         :: total energy             -99.252008922706 Eh    ::
         :: gradient norm              0.004151376645 Eh/a0 ::
         :: HOMO-LUMO gap              0.398134145047 eV    ::
         :: SCC energy              -100.613560419162 Eh    ::
         :: -> dispersion             -0.075659325261 Eh    ::
         :: repulsion energy           1.360206785249 Eh    ::

    * Orbital Energies and Occupations

         #    Occupation            Energy/Eh            Energy/eV
      -------------------------------------------------------------
         1        2.0000           -0.8043724             -21.8881
       ...           ...                  ...                  ...
        78        1.9991           -0.5354906             -14.5714
        79        1.9988           -0.5312764             -14.4568
        80        1.9987           -0.5296677             -14.4130
        81        1.9984           -0.5270432             -14.3416
        82        1.9982           -0.5255047             -14.2997
        83        1.9977           -0.5212728             -14.1846
        84        1.9972           -0.5182952             -14.1035
        85        1.9799           -0.4867011             -13.2438
        86        1.9754           -0.4834996             -13.1567
        87        1.9689           -0.4797307             -13.0541
        88        1.8527           -0.4541352             -12.3576
        89        1.8498           -0.4537925             -12.3483
        90        1.2028           -0.4205522             -11.4438 (HOMO)
        91        0.7491           -0.4059210             -11.0457 (LUMO)
        92        0.4066           -0.3924131             -10.6781
        93        0.0239           -0.3441609              -9.3651
        94        0.0029           -0.3106422              -8.4530
        95        0.0029           -0.3103653              -8.4455
        96        0.0025           -0.3082139              -8.3869
        97        0.0017           -0.3017575              -8.2112
        98        0.0000           -0.1857277              -5.0539
        99        0.0000           -0.1801916              -4.9033
       100                         -0.1349907              -3.6733
       101                         -0.0695431              -1.8924
       ...                                ...                  ...
       171                          0.5785279              15.7425
      -------------------------------------------------------------
                  HL-Gap            0.0146312 Eh            0.3981 eV

     #   Z          covCN         q      C6AA      α(0)
     1   7 N        1.774    -0.284    28.173     7.860
     2   6 C        2.825     0.099    25.801     8.323
     3   6 C        3.909     0.012    20.310     6.406
     4   6 C        2.973     0.006    27.892     8.663
     5   6 C        2.006    -0.142    35.037     9.559
     6   6 C        2.879     0.136    25.023     8.201
     7   8 O        1.705    -0.229    17.793     5.695
     8   6 C        3.662     0.029    20.346     6.471
     9   6 C        2.865     0.127    25.216     8.231
    10   8 O        1.706    -0.230    17.816     5.699
    11   6 C        3.645     0.029    20.418     6.494
    12   6 C        2.913    -0.080    30.011     8.983
    13   6 C        2.926    -0.054    29.350     8.884
    14   6 C        3.810    -0.067    21.774     6.642
    15   6 C        3.802    -0.069    21.819     6.650
    16   6 C        2.843     0.004    27.917     8.659
    17   7 N        2.729     0.010    21.092     6.821
    18   6 C        3.755    -0.016    20.912     6.520
    19   6 C        3.807    -0.070    21.841     6.653
    20   6 C        2.969    -0.001    28.046     8.687
    21   6 C        2.922    -0.049    29.223     8.865
    22   6 C        2.914    -0.068    29.689     8.935
    23   6 C        2.865     0.133    25.089     8.210
    24   8 O        1.706    -0.223    17.701     5.680
    25   6 C        3.645     0.025    20.482     6.504
    26   6 C        2.863     0.133    25.097     8.212
    27   8 O        1.706    -0.226    17.745     5.687
    28   6 C        3.645     0.028    20.447     6.499
    29   6 C        2.919    -0.080    29.993     8.981
    30   6 C        3.699    -0.070    22.001     6.708
    31   6 C        3.736     0.011    20.476     6.458
    32   6 C        3.756    -0.120    22.844     6.815
    33   6 C        3.755    -0.121    22.884     6.821
    34   1 H        0.003    -0.040     9.609     5.668
    35   1 H        0.924     0.055     2.255     2.348
    36   1 H        0.925     0.076     2.019     2.222
    37   1 H        0.924     0.051     2.312     2.378
    38   1 H        0.924     0.053     2.278     2.360
    39   1 H        0.925     0.080     1.978     2.199
    40   1 H        0.924     0.047     2.360     2.403
    41   1 H        0.926     0.049     2.334     2.389
    42   1 H        0.926     0.036     2.501     2.473
    43   1 H        0.924     0.068     2.110     2.271
    44   1 H        0.924     0.050     2.315     2.379
    45   1 H        0.925     0.071     2.070     2.250
    46   1 H        0.924     0.080     1.975     2.198
    47   1 H        0.923     0.011     2.870     2.649
    48   1 H        0.926     0.067     2.116     2.275
    49   1 H        0.924     0.067     2.124     2.279
    50   1 H        0.924     0.066     2.127     2.281
    51   1 H        0.924     0.055     2.258     2.350
    52   1 H        0.924     0.055     2.253     2.347
    53   1 H        0.926     0.044     2.392     2.419
    54   1 H        0.926     0.058     2.226     2.333
    55   1 H        0.924     0.054     2.276     2.359
    56   1 H        0.924     0.055     2.254     2.348
    57   1 H        0.925     0.082     1.960     2.190
    58   1 H        0.925     0.081     1.965     2.192
    59   1 H        0.924     0.048     2.346     2.395
    60   1 H        0.924     0.052     2.294     2.369
    61   1 H        0.926     0.046     2.365     2.405
    62   1 H        0.924     0.077     2.011     2.218
    63   1 H        0.924     0.079     1.989     2.205
    64   1 H        0.925     0.079     1.988     2.205
    65   1 H        0.803     0.112     1.710     2.054
    66   1 H        0.924     0.090     1.876     2.142
    67   1 H        0.925     0.052     2.296     2.369
    68   1 H        0.925     0.060     2.198     2.318
    69   1 H        0.925     0.082     1.963     2.191
    70   1 H        0.925     0.046     2.366     2.405
    71   1 H        0.925     0.062     2.172     2.305
    72   1 H        0.860     0.157     1.352     1.821

Wiberg/Mayer (AO) data.
largest (>0.10) Wiberg bond orders for each atom

     #   Z sym  total        # sym  WBO       # sym  WBO       # sym  WBO
 ---------------------------------------------------------------------------
     1   7 N    3.033 --     2 C    1.946    72 H    0.942
     2   6 C    3.906 --     1 N    1.946     3 C    0.977    47 H    0.904
     3   6 C    3.966 --     2 C    0.977    31 C    0.960    14 C    0.958
                             4 C    0.952
     4   6 C    3.914 --     5 C    1.402    13 C    1.362     3 C    0.952
     5   6 C    3.045 --     4 C    1.402     6 C    1.397
     6   6 C    3.863 --     5 C    1.397     9 C    1.190     7 O    1.095
     7   8 O    2.236 --     6 C    1.095     8 C    0.977
     8   6 C    3.925 --    36 H    0.979     7 O    0.977    35 H    0.972
                            37 H    0.972
     9   6 C    3.847 --    12 C    1.385     6 C    1.190    10 O    1.098
    10   8 O    2.242 --     9 C    1.098    11 C    0.975
    11   6 C    3.928 --    39 H    0.977    10 O    0.975    38 H    0.974
                            40 H    0.974
    12   6 C    3.957 --    13 C    1.413     9 C    1.385    41 H    0.960
    13   6 C    3.897 --    12 C    1.413     4 C    1.362    42 H    0.955
    14   6 C    3.968 --    15 C    0.983    44 H    0.973    43 H    0.967
                             3 C    0.958
    15   6 C    3.986 --    16 C    1.060    14 C    0.983    45 H    0.959
                            46 H    0.927
    16   6 C    3.577 --    17 N    1.396    15 C    1.060    48 H    0.957
    17   7 N    3.470 --    16 C    1.396    30 C    0.999    18 C    0.989
    18   6 C    3.956 --    17 N    0.989    50 H    0.968    19 C    0.967
                            49 H    0.964
    19   6 C    3.976 --    20 C    1.007    51 H    0.972    52 H    0.972
                            18 C    0.967
    20   6 C    3.946 --    21 C    1.411    29 C    1.379    19 C    1.007
    21   6 C    3.952 --    22 C    1.416    20 C    1.411    53 H    0.968
    22   6 C    3.961 --    21 C    1.416    23 C    1.385    54 H    0.963
    23   6 C    3.897 --    22 C    1.385    26 C    1.221    24 O    1.109
    24   8 O    2.255 --    23 C    1.109    25 C    0.976
    25   6 C    3.929 --    57 H    0.977    24 O    0.976    55 H    0.973
                            56 H    0.973
    26   6 C    3.900 --    29 C    1.396    23 C    1.221    27 O    1.102
    27   8 O    2.255 --    26 C    1.102    28 C    0.979
    28   6 C    3.933 --    27 O    0.979    58 H    0.977    59 H    0.974
                            60 H    0.973
    29   6 C    3.960 --    26 C    1.396    20 C    1.379    61 H    0.963
    30   6 C    3.958 --    17 N    0.999    64 H    0.978    62 H    0.966
                            63 H    0.962
    31   6 C    3.622 --    32 C    1.028    33 C    1.024     3 C    0.960
                            65 H    0.520
    32   6 C    3.973 --    31 C    1.028    68 H    0.978    67 H    0.977
                            66 H    0.940
    33   6 C    3.978 --    31 C    1.024    70 H    0.979    71 H    0.978
                            69 H    0.947
    34   1 H    0.545 --    65 H    0.448
    35   1 H    0.992 --     8 C    0.972
    36   1 H    0.993 --     8 C    0.979
    37   1 H    0.992 --     8 C    0.972
    38   1 H    0.993 --    11 C    0.974
    39   1 H    0.992 --    11 C    0.977
    40   1 H    0.993 --    11 C    0.974
    41   1 H    0.990 --    12 C    0.960
    42   1 H    0.987 --    13 C    0.955
    43   1 H    0.994 --    14 C    0.967
    44   1 H    0.996 --    14 C    0.973
    45   1 H    0.994 --    15 C    0.959
    46   1 H    0.967 --    15 C    0.927
    47   1 H    0.986 --     2 C    0.904
    48   1 H    0.995 --    16 C    0.957
    49   1 H    0.990 --    18 C    0.964
    50   1 H    0.995 --    18 C    0.968
    51   1 H    0.996 --    19 C    0.972
    52   1 H    0.996 --    19 C    0.972
    53   1 H    0.997 --    21 C    0.968
    54   1 H    0.995 --    22 C    0.963
    55   1 H    0.992 --    25 C    0.973
    56   1 H    0.992 --    25 C    0.973
    57   1 H    0.993 --    25 C    0.977
    58   1 H    0.993 --    28 C    0.977
    59   1 H    0.993 --    28 C    0.974
    60   1 H    0.993 --    28 C    0.973
    61   1 H    0.997 --    29 C    0.963
    62   1 H    0.984 --    30 C    0.966
    63   1 H    0.987 --    30 C    0.962
    64   1 H    0.993 --    30 C    0.978
    65   1 H    0.985 --    31 C    0.520    34 H    0.448
    66   1 H    0.966 --    32 C    0.940
    67   1 H    0.994 --    32 C    0.977
    68   1 H    0.992 --    32 C    0.978
    69   1 H    0.971 --    33 C    0.947
    70   1 H    0.995 --    33 C    0.979
    71   1 H    0.992 --    33 C    0.978
    72   1 H    0.970 --     1 N    0.942
 ---------------------------------------------------------------------------

molecular dipole:
                 x           y           z       tot (Debye)
 q only:        0.441       0.663      -0.460
   full:        0.832       0.477      -0.406       2.647

           -------------------------------------------------
          | TOTAL ENERGY              -99.252008922706 Eh   |
          | GRADIENT NORM               0.004151376645 Eh/α |
          | HOMO-LUMO GAP               0.398134145047 eV   |
           -------------------------------------------------

 * finished run on 2024/04/06 at 11:12:38.490
