   * xtb version 6.6.1 (8d0f1dd) compiled by 'conda@1efc2f54142f' on 2023-08-01
          program call               : xtb struc.xyz --opt loose --input .xc1 --gfn2

   ID    Z sym.   atoms
    1    7 N      1, 17
    2    6 C      2-6, 8, 9, 11-16, 18-23, 25, 26, 28-33
    3    8 O      7, 10, 24, 27
    4    1 H      34-72
constraining bond 12 45 to    6.7133300 Å, actual value:    3.8051674 Å

          :  Hamiltonian                  GFN2-xTB          :
 * total energy  :  -100.9142285 Eh     change       -0.4035485E-08 Eh
 * total energy  :  -101.6430780 Eh     change       -0.7288495E+00 Eh
 * total energy  :  -102.4583181 Eh     change       -0.8152401E+00 Eh
 * total energy  :  -103.3948152 Eh     change       -0.9364971E+00 Eh
 * total energy  :  -104.5347221 Eh     change       -0.1139907E+01 Eh
 * total energy  :  -104.6907887 Eh     change       -0.1560665E+00 Eh
 * total energy  :  -105.0327302 Eh     change       -0.3419416E+00 Eh
 * total energy  :  -105.1336817 Eh     change       -0.1009515E+00 Eh
 * total energy  :  -105.1428667 Eh     change       -0.9184964E-02 Eh
 * total energy  :  -105.2784150 Eh     change       -0.1355483E+00 Eh
 * total energy  :  -105.6025907 Eh     change       -0.1865003E-03 Eh
 * total energy  :  -105.6027456 Eh     change       -0.1549121E-03 Eh
 * total energy  :  -105.6029127 Eh     change       -0.1671473E-03 Eh
 * total energy  :  -105.6030445 Eh     change       -0.1317888E-03 Eh
 * total energy  :  -105.6031764 Eh     change       -0.1319358E-03 Eh
 * total energy  :  -105.6033042 Eh     change       -0.1277089E-03 Eh
 * total energy  :  -105.6034456 Eh     change       -0.1414170E-03 Eh
 * total energy  :  -105.6035744 Eh     change       -0.1287975E-03 Eh
 * total energy  :  -105.6036184 Eh     change       -0.4405013E-04 Eh
   *** GEOMETRY OPTIMIZATION CONVERGED AFTER 68 ITERATIONS ***

 final structure:
================
72
 xtb: 6.6.1 (8d0f1dd)
N           -2.52690410296545        2.96144163596676        2.58614269858418
C           -2.29426329229737        2.08590434681196        1.72433831602067
C           -3.15023118872441        1.86212247142244        0.50575453752151
C           -3.77393595578378        0.47547097882181        0.56022111429999
C           -4.43613446096064       -0.01092728793809       -0.59440623440899
C           -5.03243407426195       -1.26784512423272       -0.62216484826684
O           -5.67512836221908       -1.79441143797800       -1.69139555500217
C           -5.90643726517740       -0.98321297758241       -2.82124530105173
C           -4.98060732625276       -2.09751018223772        0.50349345507905
O           -5.53973417265045       -3.30648016959091        0.39237712247966
C           -5.54113666996549       -4.18239442324892        1.49711411222953
C           -4.35395397967320       -1.65305808714921        1.80112502358126
C           -3.73447454468074       -0.28313696418570        1.68065598334025
C           -2.15242008514045        1.93843117637285       -0.69424312884299
C           -1.26477843355367        0.74222885047135       -0.78416148228535
C            0.04834228600122        0.78389113603930       -0.49586594034931
N            0.90917526486407       -0.26585583323974       -0.50298589139382
C            2.30752731153857       -0.08542889668083       -0.22506005323968
C            3.17850900815149       -0.04617635575380       -1.49937378587179
C            4.62205055139739        0.12326932674752       -1.12488377721401
C            5.23846500252022        1.36348662373235       -1.18780163985279
C            6.56020213865000        1.52257244997144       -0.80056292951514
C            7.29356857514976        0.44223580210797       -0.33032431854246
O            8.57349484287009        0.47811694969477        0.08378968998647
C            9.27266922265069        1.70074757756698        0.06151234497510
C            6.67161324396034       -0.83637771291668       -0.26445403965784
O            7.45730164348053       -1.82961935485520        0.19736600242340
C            6.93938500793449       -3.13491342371689        0.28837588255747
C            5.35083409908997       -0.97057693911910       -0.66122164390806
C            0.46094633722717       -1.56690003757221       -0.92913889904960
C           -4.29094990269679        2.90267363666294        0.33832741981840
C           -5.29393968757141        2.82478797395802        1.48785395942253
C           -3.78127979067416        4.33366225732416        0.19415321349073
H           -4.47422216754499        0.60714338355265       -1.47317523769845
H           -6.45377260826208       -0.07403093475698       -2.55605717610477
H           -6.51618916715197       -1.58802500455590       -3.48968101601019
H           -4.97270158773213       -0.71791929192235       -3.32674869651761
H           -6.09808286826018       -3.76395210795250        2.34074664609594
H           -6.03749327707473       -5.08775219853130        1.15356314848853
H           -4.52501951249181       -4.42740104851631        1.81980785983827
H           -5.22689390230983       -1.50364574760728        2.49349278019597
H           -3.26140319799137        0.07482495080108        2.58159866820179
H           -2.72916116963242        2.03662699542987       -1.61579927965667
H           -1.54773794888829        2.83824261345171       -0.57795022582425
H           -3.91884523133286       -2.10679129085153        2.06833332993008
H           -1.73987286060724       -0.18116651050929       -1.07457408775939
H           -1.42065113654077        1.41551038678976        1.74654574361368
H            0.49744250291224        1.72666654619747       -0.20860177197366
H            2.65154220779092       -0.90541559794999        0.41430471797778
H            2.44583144943002        0.84871320661530        0.32373501326686
H            2.85027209025611        0.78320001123814       -2.12705374019587
H            3.04240522285977       -0.97435239439208       -2.05696994055087
H            4.69090392999138        2.21993046505190       -1.55045167639473
H            7.01352728507360        2.49790407069320       -0.87030014917760
H            8.78393836002571        2.45416283709284        0.68689107576517
H            9.37697253799453        2.08392730374222       -0.95810645344785
H           10.25858849555834        1.47996246593792        0.46675670379856
H            7.75401927288037       -3.74603372228748        0.67236793832447
H            6.09360518411329       -3.18364009844846        0.98173576988513
H            6.63302834596545       -3.51484681681517       -0.69122481468551
H            4.87424223352761       -1.93782485676625       -0.62230971308658
H            0.09951323116546       -1.54189585414210       -1.96079117565976
H           -0.35241173890539       -1.91644722445540       -0.28798033469975
H            1.28232740897987       -2.27515102404822       -0.86391691054201
H           -4.82104169307259        2.64145427513353       -0.58516124406883
H           -4.81586444787303        3.11873342998453        2.41655714699007
H           -5.69073005288294        1.81824616923446        1.59673810744033
H           -6.12331601734575        3.50007762150524        1.29480458386466
H           -3.20412485731822        4.61811482272033        1.06833243018964
H           -3.16953094328515        4.45605688854250       -0.69580882252977
H           -4.62956623539781        5.00837965299122        0.11099319811608
H           -1.86835277984603        3.05633516458720        3.35331103986759

          :  Hamiltonian                  GFN2-xTB          :
         :: total energy            -105.603618422673 Eh    ::
         :: gradient norm              0.002600274685 Eh/a0 ::
         :: HOMO-LUMO gap              1.095821363447 eV    ::
         :: SCC energy              -100.781119083288 Eh    ::
         :: -> dispersion             -0.072303857731 Eh    ::
         :: repulsion energy           1.669441154607 Eh    ::

    * Orbital Energies and Occupations

         #    Occupation            Energy/Eh            Energy/eV
      -------------------------------------------------------------
         1        2.0000           -0.8335765             -22.6828
       ...           ...                  ...                  ...
        78        1.9983           -0.5279339             -14.3658
        79        1.9980           -0.5258376             -14.3088
        80        1.9979           -0.5244303             -14.2705
        81        1.9977           -0.5231110             -14.2346
        82        1.9959           -0.5143142             -13.9952
        83        1.9949           -0.5105151             -13.8918
        84        1.9942           -0.5086793             -13.8419
        85        1.9936           -0.5070567             -13.7977
        86        1.9713           -0.4831021             -13.1459
        87        1.9542           -0.4755610             -12.9407
        88        1.9144           -0.4653525             -12.6629
        89        1.8239           -0.4531518             -12.3309
        90        1.7152           -0.4445697             -12.0974 (HOMO)
        91        0.6426           -0.4042990             -11.0015 (LUMO)
        92        0.0099           -0.3322220              -9.0402
        93        0.0040           -0.3177084              -8.6453
        94        0.0021           -0.3074855              -8.3671
        95        0.0017           -0.3045366              -8.2869
        96        0.0005           -0.2848760              -7.7519
        97        0.0000           -0.2333686              -6.3503
        98        0.0000           -0.1818496              -4.9484
        99                         -0.1032287              -2.8090
       100                         -0.0915065              -2.4900
       101                         -0.0719131              -1.9569
       ...                                ...                  ...
       171                          1.9807504              53.8990
      -------------------------------------------------------------
                  HL-Gap            0.0402707 Eh            1.0958 eV

     #   Z          covCN         q      C6AA      α(0)
     1   7 N        1.774    -0.270    27.830     7.812
     2   6 C        2.828     0.101    25.748     8.315
     3   6 C        3.909     0.008    20.386     6.418
     4   6 C        2.959     0.017    27.619     8.620
     5   6 C        2.919    -0.074    29.852     8.960
     6   6 C        2.846     0.128    25.192     8.226
     7   8 O        1.706    -0.240    17.983     5.725
     8   6 C        3.643     0.027    20.459     6.502
     9   6 C        2.853     0.122    25.314     8.246
    10   8 O        1.706    -0.195    17.253     5.608
    11   6 C        3.645     0.018    20.608     6.524
    12   6 C        3.806    -0.110    22.592     6.766
    13   6 C        2.908    -0.063    29.569     8.916
    14   6 C        3.817    -0.060    21.638     6.620
    15   6 C        2.891    -0.075    29.869     8.960
    16   6 C        2.842     0.008    27.824     8.645
    17   7 N        2.732    -0.045    22.112     6.984
    18   6 C        3.750    -0.007    20.763     6.498
    19   6 C        3.807    -0.071    21.860     6.656
    20   6 C        2.968     0.006    27.894     8.663
    21   6 C        2.922    -0.046    29.132     8.851
    22   6 C        2.913    -0.066    29.649     8.929
    23   6 C        2.864     0.134    25.073     8.208
    24   8 O        1.706    -0.220    17.652     5.673
    25   6 C        3.645     0.025    20.492     6.506
    26   6 C        2.862     0.134    25.077     8.208
    27   8 O        1.706    -0.223    17.707     5.681
    28   6 C        3.645     0.027    20.452     6.500
    29   6 C        2.920    -0.078    29.948     8.974
    30   6 C        3.699    -0.056    21.755     6.671
    31   6 C        3.853    -0.008    20.681     6.468
    32   6 C        3.756    -0.119    22.835     6.813
    33   6 C        3.755    -0.118    22.811     6.810
    34   1 H        0.926     0.063     2.159     2.298
    35   1 H        0.924     0.054     2.272     2.357
    36   1 H        0.925     0.082     1.959     2.189
    37   1 H        0.924     0.050     2.317     2.380
    38   1 H        0.924     0.065     2.147     2.291
    39   1 H        0.925     0.092     1.861     2.133
    40   1 H        0.924     0.061     2.191     2.315
    41   1 H        0.919     0.093     1.855     2.130
    42   1 H        0.926     0.049     2.332     2.388
    43   1 H        0.924     0.057     2.238     2.339
    44   1 H        0.924     0.050     2.319     2.381
    45   1 H        0.931     0.140     1.463     1.891
    46   1 H        0.926     0.036     2.499     2.472
    47   1 H        0.923     0.012     2.856     2.643
    48   1 H        0.925     0.048     2.344     2.394
    49   1 H        0.924     0.054     2.270     2.356
    50   1 H        0.924     0.058     2.220     2.330
    51   1 H        0.924     0.054     2.267     2.355
    52   1 H        0.924     0.054     2.268     2.355
    53   1 H        0.926     0.050     2.316     2.380
    54   1 H        0.926     0.059     2.211     2.325
    55   1 H        0.924     0.055     2.259     2.351
    56   1 H        0.924     0.057     2.234     2.337
    57   1 H        0.925     0.082     1.957     2.187
    58   1 H        0.925     0.081     1.964     2.192
    59   1 H        0.924     0.049     2.328     2.386
    60   1 H        0.924     0.053     2.280     2.361
    61   1 H        0.926     0.048     2.346     2.395
    62   1 H        0.924     0.061     2.182     2.310
    63   1 H        0.924     0.058     2.228     2.334
    64   1 H        0.925     0.066     2.132     2.283
    65   1 H        0.924     0.037     2.495     2.470
    66   1 H        0.925     0.070     2.084     2.258
    67   1 H        0.925     0.030     2.590     2.517
    68   1 H        0.925     0.051     2.310     2.377
    69   1 H        0.925     0.062     2.172     2.305
    70   1 H        0.925     0.037     2.487     2.466
    71   1 H        0.925     0.053     2.283     2.363
    72   1 H        0.860     0.158     1.348     1.819

Wiberg/Mayer (AO) data.
largest (>0.10) Wiberg bond orders for each atom

     #   Z sym  total        # sym  WBO       # sym  WBO       # sym  WBO
 ---------------------------------------------------------------------------
     1   7 N    3.011 --     2 C    1.954    72 H    0.941
     2   6 C    3.940 --     1 N    1.954     3 C    0.992    47 H    0.929
     3   6 C    3.960 --     2 C    0.992     4 C    0.969    31 C    0.951
                            14 C    0.925
     4   6 C    3.977 --    13 C    1.630     5 C    1.246     3 C    0.969
     5   6 C    3.735 --     6 C    1.357     4 C    1.246    34 H    0.958
     6   6 C    3.911 --     5 C    1.357     9 C    1.311     7 O    1.084
     7   8 O    2.241 --     6 C    1.084     8 C    0.976
     8   6 C    3.931 --     7 O    0.976    36 H    0.976    35 H    0.974
                            37 H    0.974
     9   6 C    3.666 --     6 C    1.311    10 O    1.159    12 C    1.024
    10   8 O    2.278 --     9 C    1.159    11 C    0.971
    11   6 C    3.921 --    39 H    0.976    10 O    0.971    40 H    0.971
                            38 H    0.968
    12   6 C    3.963 --    13 C    1.031     9 C    1.024    45 H    0.939
                            41 H    0.887
    13   6 C    3.794 --     4 C    1.630    12 C    1.031    42 H    0.962
    14   6 C    3.985 --    15 C    1.038    44 H    0.970    43 H    0.954
                             3 C    0.925
    15   6 C    3.817 --    16 C    1.672    14 C    1.038    46 H    0.962
    16   6 C    3.934 --    15 C    1.672    17 N    1.214    48 H    0.955
    17   7 N    3.373 --    16 C    1.214    30 C    1.007    18 C    1.005
    18   6 C    3.962 --    17 N    1.005    50 H    0.969    49 H    0.964
                            19 C    0.964
    19   6 C    3.975 --    20 C    1.013    51 H    0.974    52 H    0.968
                            18 C    0.964
    20   6 C    3.934 --    21 C    1.403    29 C    1.378    19 C    1.013
    21   6 C    3.938 --    22 C    1.418    20 C    1.403    53 H    0.967
    22   6 C    3.954 --    21 C    1.418    23 C    1.381    54 H    0.963
    23   6 C    3.882 --    22 C    1.381    26 C    1.214    24 O    1.111
    24   8 O    2.248 --    23 C    1.111    25 C    0.976
    25   6 C    3.927 --    57 H    0.977    24 O    0.976    55 H    0.972
                            56 H    0.972
    26   6 C    3.889 --    29 C    1.396    23 C    1.214    27 O    1.104
    27   8 O    2.249 --    26 C    1.104    28 C    0.979
    28   6 C    3.931 --    27 O    0.979    58 H    0.977    59 H    0.973
                            60 H    0.973
    29   6 C    3.955 --    26 C    1.396    20 C    1.378    61 H    0.962
    30   6 C    3.969 --    17 N    1.007    64 H    0.980    63 H    0.971
                            62 H    0.970
    31   6 C    3.977 --    33 C    1.008    32 C    1.007    65 H    0.958
                             3 C    0.951
    32   6 C    3.978 --    31 C    1.007    67 H    0.983    68 H    0.982
                            66 H    0.973
    33   6 C    3.981 --    31 C    1.008    70 H    0.983    71 H    0.980
                            69 H    0.976
    34   1 H    0.995 --     5 C    0.958
    35   1 H    0.994 --     8 C    0.974
    36   1 H    0.992 --     8 C    0.976
    37   1 H    0.994 --     8 C    0.974
    38   1 H    0.990 --    11 C    0.968
    39   1 H    0.991 --    11 C    0.976
    40   1 H    0.990 --    11 C    0.971
    41   1 H    0.941 --    12 C    0.887
    42   1 H    0.997 --    13 C    0.962
    43   1 H    0.988 --    14 C    0.954
    44   1 H    0.996 --    14 C    0.970
    45   1 H    0.969 --    12 C    0.939
    46   1 H    0.998 --    15 C    0.962
    47   1 H    0.980 --     2 C    0.929
    48   1 H    0.997 --    16 C    0.955
    49   1 H    0.990 --    18 C    0.964
    50   1 H    0.995 --    18 C    0.969
    51   1 H    0.996 --    19 C    0.974
    52   1 H    0.994 --    19 C    0.968
    53   1 H    0.997 --    21 C    0.967
    54   1 H    0.995 --    22 C    0.963
    55   1 H    0.991 --    25 C    0.972
    56   1 H    0.990 --    25 C    0.972
    57   1 H    0.992 --    25 C    0.977
    58   1 H    0.993 --    28 C    0.977
    59   1 H    0.992 --    28 C    0.973
    60   1 H    0.992 --    28 C    0.973
    61   1 H    0.996 --    29 C    0.962
    62   1 H    0.986 --    30 C    0.970
    63   1 H    0.988 --    30 C    0.971
    64   1 H    0.996 --    30 C    0.980
    65   1 H    0.991 --    31 C    0.958
    66   1 H    0.991 --    32 C    0.973
    67   1 H    0.997 --    32 C    0.983
    68   1 H    0.994 --    32 C    0.982
    69   1 H    0.992 --    33 C    0.976
    70   1 H    0.996 --    33 C    0.983
    71   1 H    0.994 --    33 C    0.980
    72   1 H    0.968 --     1 N    0.941
 ---------------------------------------------------------------------------

molecular dipole:
                 x           y           z       tot (Debye)
 q only:       -0.449      -1.007       0.296
   full:       -0.204      -1.167       0.343       3.134

           -------------------------------------------------
          | TOTAL ENERGY             -105.603618422673 Eh   |
          | GRADIENT NORM               0.002600274685 Eh/α |
          | HOMO-LUMO GAP               1.095821363447 eV   |
           -------------------------------------------------

 * finished run on 2024/04/06 at 11:16:29.843
