   * xtb version 6.6.1 (8d0f1dd) compiled by 'conda@1efc2f54142f' on 2023-08-01
          program call               : xtb xtbopt.xyz --opt crude --input .xc2 --gfn2

   ID    Z sym.   atoms
    1    7 N      1, 17
    2    6 C      2-6, 8, 9, 11-16, 18-23, 25, 26, 28-33
    3    8 O      7, 10, 24, 27
    4    1 H      34-72
########################################################################
[WARNING] Please study the warnings concerning your input carefully
-1- readin_getIntValue: could not parse ''
########################################################################

          :  Hamiltonian                  GFN2-xTB          :
 * total energy  :   -99.1107177 Eh     change       -0.2259526E-11 Eh
 * total energy  :   -99.3782459 Eh     change       -0.2675282E+00 Eh
 * total energy  :   -99.3807989 Eh     change       -0.2553016E-02 Eh
 * total energy  :   -99.3818776 Eh     change       -0.1078710E-02 Eh
 * total energy  :   -99.3821824 Eh     change       -0.3047398E-03 Eh
 * total energy  :   -99.3823978 Eh     change       -0.2154581E-03 Eh
   *** GEOMETRY OPTIMIZATION CONVERGED AFTER 6 ITERATIONS ***

 final structure:
================
72
 xtb: 6.6.1 (8d0f1dd)
N           -2.51139154244635        2.96284833193753        2.57612840990162
C           -2.29597590092882        2.07876339379797        1.71809528905369
C           -3.15351932208914        1.86632363942179        0.49897085086687
C           -3.78549866932408        0.48367081324901        0.55525292177277
C           -4.43609007998600       -0.01090508670095       -0.60182093214340
C           -5.03759998245273       -1.26501889214189       -0.62593793895959
O           -5.66822622079522       -1.79638933675867       -1.70106889363792
C           -5.88062507563728       -0.98971584717270       -2.83770884445129
C           -5.00335009925566       -2.08612041119581        0.50843224962106
O           -5.55170957510775       -3.29974544169623        0.39389245428471
C           -5.57120361622771       -4.17527445783718        1.49735014342380
C           -4.40423384904063       -1.60554629617857        1.78306423116468
C           -3.77296854446423       -0.26072470611535        1.68709641108590
C           -2.15555762157606        1.93889449304401       -0.70136313317859
C           -1.26691121053095        0.74322966458996       -0.78961554066896
C            0.04367034726017        0.78437550111269       -0.49027161984530
N            0.90503245212205       -0.26573830679573       -0.49056097939269
C            2.30431579165597       -0.08007474193648       -0.21717976482996
C            3.17224766869186       -0.04536522447002       -1.49381897875560
C            4.61637469870785        0.12436803455418       -1.12204179715549
C            5.23057193973955        1.36589176277099       -1.17990651494619
C            6.55274067659699        1.52495278198679       -0.79460480633127
C            7.28897228170283        0.44359075830009       -0.33111434284881
O            8.57043774518016        0.48127125586637        0.07852728169514
C            9.26668912748740        1.70585823797958        0.05191205412409
C            6.66896874811263       -0.83605777779048       -0.26856212880912
O            7.45532771513652       -1.83052828071350        0.18939730773386
C            6.93619169838130       -3.13562071617327        0.27828222623485
C            5.34769397659367       -0.97028102004970       -0.66431269798468
C            0.46200521587262       -1.56706333284902       -0.91945491647893
C           -4.28635333059984        2.91619580925851        0.33247457297395
C           -5.29309077992220        2.83825929218350        1.47846760061476
C           -3.76763580141619        4.34536212688604        0.19987992558120
H           -4.46398747773794        0.60008424132303       -1.48656457236003
H           -6.43153348117826       -0.07879718403455       -2.58575201749245
H           -6.47921083376586       -1.59581394843697       -3.51488350154380
H           -4.93871314813454       -0.72678596743887       -3.32948704815837
H           -6.12603312388208       -3.75160353223569        2.33924816999383
H           -6.07378042744909       -5.07591798489109        1.14980906318955
H           -4.55895616909974       -4.43158749110134        1.82556580284542
H           -5.20199641372383       -1.55597320052393        2.54632303557737
H           -3.32634326276820        0.11141494157658        2.59574690431772
H           -2.73191208713253        2.03565005933633       -1.62340126031511
H           -1.55136424507386        2.83947030588035       -0.58658036468612
H           -3.68557609742827       -2.33257961984723        2.18144087017373
H           -1.73955209286125       -0.17936449723620       -1.08672170350806
H           -1.43686531373413        1.39062429093200        1.74585917146609
H            0.49197401396307        1.72519028039871       -0.19730227125873
H            2.65175474990794       -0.89607032712662        0.42521249419129
H            2.44080845623759        0.85714630532782        0.32640309069363
H            2.84342213827932        0.78226216379779       -2.12334441808945
H            3.03419445926370       -0.97544913478366       -2.04764607890907
H            4.68036722126047        2.22280796704219       -1.53721626336330
H            7.00421586894217        2.50137907610969       -0.86000540859934
H            8.78564094555149        2.45429864721824        0.68886292199402
H            9.35388053068369        2.09441935298701       -0.96721509793074
H           10.25927503672091        1.48562857575484        0.44039218983684
H            7.75030193008316       -3.74848124588364        0.66044175957760
H            6.09085606161265       -3.18462779419400        0.97225284151114
H            6.62846050001049       -3.51318587833782       -0.70174501521951
H            4.87228162569182       -1.93818293277518       -0.62967050239069
H            0.12024435470328       -1.54786200430012       -1.95817441157089
H           -0.36444758329445       -1.91145276430575       -0.29228586337804
H            1.28043642304433       -2.27709443380907       -0.83394108159306
H           -4.81391448800668        2.66329766421494       -0.59496644905824
H           -4.81319315461113        3.11715772180518        2.41111804724143
H           -5.70147257228165        1.83513110504574        1.57640259345539
H           -6.11437751568007        3.52507467495873        1.29116152031911
H           -3.19805103161018        4.62188728020525        1.08168974920491
H           -3.14658596855184        4.47003249350556       -0.68318937172889
H           -4.61185682099925        5.02461182945162        0.11207750761894
H           -1.85117427137863        3.04371446648602        3.34346971085433

          :  Hamiltonian                  GFN2-xTB          :
         :: total energy             -99.382397835815 Eh    ::
         :: gradient norm              0.005707886435 Eh/a0 ::
         :: HOMO-LUMO gap              1.095280546390 eV    ::
         :: SCC energy              -100.756912032396 Eh    ::
         :: -> dispersion             -0.072282507173 Eh    ::
         :: repulsion energy           1.373553063643 Eh    ::

    * Orbital Energies and Occupations

         #    Occupation            Energy/Eh            Energy/eV
      -------------------------------------------------------------
         1        2.0000           -0.8328076             -22.6618
       ...           ...                  ...                  ...
        78        1.9983           -0.5277031             -14.3595
        79        1.9980           -0.5257457             -14.3063
        80        1.9978           -0.5241801             -14.2637
        81        1.9977           -0.5230909             -14.2340
        82        1.9960           -0.5142933             -13.9946
        83        1.9948           -0.5103292             -13.8868
        84        1.9942           -0.5085332             -13.8379
        85        1.9936           -0.5069328             -13.7943
        86        1.9713           -0.4830851             -13.1454
        87        1.9526           -0.4749681             -12.9245
        88        1.9149           -0.4654019             -12.6642
        89        1.8242           -0.4531528             -12.3309
        90        1.7154           -0.4445469             -12.0967 (HOMO)
        91        0.6435           -0.4042961             -11.0015 (LUMO)
        92        0.0099           -0.3320946              -9.0368
        93        0.0039           -0.3172156              -8.6319
        94        0.0021           -0.3074673              -8.3666
        95        0.0017           -0.3045102              -8.2861
        96        0.0005           -0.2848978              -7.7525
        97        0.0000           -0.2341799              -6.3724
        98        0.0000           -0.1818146              -4.9474
        99                         -0.1031500              -2.8069
       100                         -0.0868163              -2.3624
       101                         -0.0701660              -1.9093
       ...                                ...                  ...
       171                          0.5814584              15.8223
      -------------------------------------------------------------
                  HL-Gap            0.0402508 Eh            1.0953 eV

     #   Z          covCN         q      C6AA      α(0)
     1   7 N        1.774    -0.271    27.840     7.813
     2   6 C        2.829     0.102    25.742     8.314
     3   6 C        3.909     0.008    20.385     6.417
     4   6 C        2.961     0.018    27.610     8.619
     5   6 C        2.919    -0.074    29.836     8.957
     6   6 C        2.847     0.129    25.177     8.224
     7   8 O        1.706    -0.240    17.979     5.725
     8   6 C        3.643     0.027    20.455     6.501
     9   6 C        2.852     0.127    25.202     8.228
    10   8 O        1.706    -0.193    17.226     5.604
    11   6 C        3.644     0.019    20.600     6.524
    12   6 C        3.808    -0.071    21.847     6.653
    13   6 C        2.909    -0.057    29.423     8.895
    14   6 C        3.817    -0.060    21.637     6.620
    15   6 C        2.891    -0.075    29.862     8.959
    16   6 C        2.842     0.008    27.824     8.645
    17   7 N        2.732    -0.046    22.122     6.986
    18   6 C        3.750    -0.007    20.763     6.498
    19   6 C        3.807    -0.071    21.859     6.656
    20   6 C        2.969     0.006    27.895     8.663
    21   6 C        2.922    -0.046    29.133     8.851
    22   6 C        2.913    -0.066    29.650     8.929
    23   6 C        2.864     0.134    25.073     8.208
    24   8 O        1.706    -0.220    17.655     5.673
    25   6 C        3.645     0.025    20.492     6.506
    26   6 C        2.862     0.134    25.077     8.208
    27   8 O        1.706    -0.223    17.708     5.681
    28   6 C        3.645     0.027    20.451     6.500
    29   6 C        2.920    -0.078    29.950     8.974
    30   6 C        3.699    -0.056    21.749     6.670
    31   6 C        3.853    -0.008    20.676     6.467
    32   6 C        3.756    -0.118    22.824     6.812
    33   6 C        3.755    -0.118    22.816     6.811
    34   1 H        0.926     0.063     2.158     2.297
    35   1 H        0.924     0.054     2.274     2.358
    36   1 H        0.925     0.082     1.960     2.189
    37   1 H        0.924     0.050     2.321     2.382
    38   1 H        0.924     0.064     2.148     2.292
    39   1 H        0.925     0.093     1.850     2.127
    40   1 H        0.924     0.061     2.193     2.316
    41   1 H        0.922     0.093     1.853     2.129
    42   1 H        0.926     0.051     2.312     2.378
    43   1 H        0.924     0.057     2.238     2.340
    44   1 H        0.924     0.050     2.315     2.379
    45   1 H        0.924     0.083     1.947     2.182
    46   1 H        0.926     0.036     2.500     2.472
    47   1 H        0.923     0.012     2.859     2.644
    48   1 H        0.925     0.048     2.342     2.393
    49   1 H        0.924     0.054     2.271     2.357
    50   1 H        0.924     0.058     2.218     2.329
    51   1 H        0.924     0.054     2.268     2.355
    52   1 H        0.924     0.054     2.268     2.355
    53   1 H        0.926     0.050     2.316     2.380
    54   1 H        0.926     0.059     2.210     2.325
    55   1 H        0.924     0.055     2.258     2.350
    56   1 H        0.924     0.057     2.235     2.338
    57   1 H        0.925     0.082     1.956     2.187
    58   1 H        0.925     0.081     1.964     2.192
    59   1 H        0.924     0.049     2.328     2.386
    60   1 H        0.924     0.053     2.280     2.361
    61   1 H        0.926     0.048     2.346     2.395
    62   1 H        0.924     0.061     2.186     2.312
    63   1 H        0.924     0.057     2.230     2.335
    64   1 H        0.925     0.066     2.133     2.284
    65   1 H        0.924     0.036     2.499     2.472
    66   1 H        0.925     0.069     2.096     2.264
    67   1 H        0.925     0.030     2.590     2.517
    68   1 H        0.925     0.051     2.309     2.376
    69   1 H        0.925     0.063     2.161     2.299
    70   1 H        0.925     0.037     2.487     2.466
    71   1 H        0.925     0.053     2.284     2.363
    72   1 H        0.860     0.158     1.349     1.820

Wiberg/Mayer (AO) data.
largest (>0.10) Wiberg bond orders for each atom

     #   Z sym  total        # sym  WBO       # sym  WBO       # sym  WBO
 ---------------------------------------------------------------------------
     1   7 N    3.011 --     2 C    1.954    72 H    0.941
     2   6 C    3.940 --     1 N    1.954     3 C    0.992    47 H    0.930
     3   6 C    3.960 --     2 C    0.992     4 C    0.970    31 C    0.950
                            14 C    0.925
     4   6 C    3.977 --    13 C    1.623     5 C    1.248     3 C    0.970
     5   6 C    3.739 --     6 C    1.359     4 C    1.248    34 H    0.958
     6   6 C    3.911 --     5 C    1.359     9 C    1.306     7 O    1.084
     7   8 O    2.240 --     6 C    1.084     8 C    0.977
     8   6 C    3.930 --     7 O    0.977    36 H    0.976    35 H    0.974
                            37 H    0.974
     9   6 C    3.672 --     6 C    1.306    10 O    1.158    12 C    1.039
    10   8 O    2.278 --     9 C    1.158    11 C    0.973
    11   6 C    3.921 --    39 H    0.975    10 O    0.973    38 H    0.968
                            40 H    0.967
    12   6 C    3.982 --    13 C    1.044     9 C    1.039    45 H    0.920
                            41 H    0.904
    13   6 C    3.795 --     4 C    1.623    12 C    1.044    42 H    0.962
    14   6 C    3.985 --    15 C    1.038    44 H    0.969    43 H    0.954
                             3 C    0.925
    15   6 C    3.817 --    16 C    1.673    14 C    1.038    46 H    0.962
    16   6 C    3.934 --    15 C    1.673    17 N    1.213    48 H    0.955
    17   7 N    3.373 --    16 C    1.213    30 C    1.007    18 C    1.005
    18   6 C    3.962 --    17 N    1.005    50 H    0.969    49 H    0.964
                            19 C    0.964
    19   6 C    3.975 --    20 C    1.013    51 H    0.974    52 H    0.968
                            18 C    0.964
    20   6 C    3.934 --    21 C    1.402    29 C    1.378    19 C    1.013
    21   6 C    3.938 --    22 C    1.418    20 C    1.402    53 H    0.967
    22   6 C    3.954 --    21 C    1.418    23 C    1.380    54 H    0.963
    23   6 C    3.882 --    22 C    1.380    26 C    1.214    24 O    1.111
    24   8 O    2.248 --    23 C    1.111    25 C    0.976
    25   6 C    3.927 --    57 H    0.977    24 O    0.976    55 H    0.972
                            56 H    0.972
    26   6 C    3.889 --    29 C    1.395    23 C    1.214    27 O    1.104
    27   8 O    2.249 --    26 C    1.104    28 C    0.979
    28   6 C    3.931 --    27 O    0.979    58 H    0.977    59 H    0.973
                            60 H    0.973
    29   6 C    3.955 --    26 C    1.395    20 C    1.378    61 H    0.962
    30   6 C    3.969 --    17 N    1.007    64 H    0.980    63 H    0.971
                            62 H    0.970
    31   6 C    3.977 --    33 C    1.008    32 C    1.007    65 H    0.959
                             3 C    0.950
    32   6 C    3.978 --    31 C    1.007    67 H    0.983    68 H    0.982
                            66 H    0.974
    33   6 C    3.981 --    31 C    1.008    70 H    0.982    71 H    0.980
                            69 H    0.975
    34   1 H    0.995 --     5 C    0.958
    35   1 H    0.994 --     8 C    0.974
    36   1 H    0.993 --     8 C    0.976
    37   1 H    0.994 --     8 C    0.974
    38   1 H    0.990 --    11 C    0.968
    39   1 H    0.991 --    11 C    0.975
    40   1 H    0.990 --    11 C    0.967
    41   1 H    0.948 --    12 C    0.904
    42   1 H    0.997 --    13 C    0.962
    43   1 H    0.988 --    14 C    0.954
    44   1 H    0.996 --    14 C    0.969
    45   1 H    0.960 --    12 C    0.920
    46   1 H    0.998 --    15 C    0.962
    47   1 H    0.980 --     2 C    0.930
    48   1 H    0.997 --    16 C    0.955
    49   1 H    0.990 --    18 C    0.964
    50   1 H    0.995 --    18 C    0.969
    51   1 H    0.996 --    19 C    0.974
    52   1 H    0.995 --    19 C    0.968
    53   1 H    0.997 --    21 C    0.967
    54   1 H    0.995 --    22 C    0.963
    55   1 H    0.991 --    25 C    0.972
    56   1 H    0.990 --    25 C    0.972
    57   1 H    0.992 --    25 C    0.977
    58   1 H    0.993 --    28 C    0.977
    59   1 H    0.992 --    28 C    0.973
    60   1 H    0.992 --    28 C    0.973
    61   1 H    0.996 --    29 C    0.962
    62   1 H    0.986 --    30 C    0.970
    63   1 H    0.988 --    30 C    0.971
    64   1 H    0.996 --    30 C    0.980
    65   1 H    0.991 --    31 C    0.959
    66   1 H    0.991 --    32 C    0.974
    67   1 H    0.997 --    32 C    0.983
    68   1 H    0.994 --    32 C    0.982
    69   1 H    0.992 --    33 C    0.975
    70   1 H    0.996 --    33 C    0.982
    71   1 H    0.994 --    33 C    0.980
    72   1 H    0.968 --     1 N    0.941
 ---------------------------------------------------------------------------

molecular dipole:
                 x           y           z       tot (Debye)
 q only:       -0.479      -0.998       0.270
   full:       -0.222      -1.202       0.349       3.232

           -------------------------------------------------
          | TOTAL ENERGY              -99.382397835815 Eh   |
          | GRADIENT NORM               0.005707886435 Eh/α |
          | HOMO-LUMO GAP               1.095280546390 eV   |
           -------------------------------------------------

 * finished run on 2024/04/06 at 11:16:31.121
