   * xtb version 6.6.1 (8d0f1dd) compiled by 'conda@1efc2f54142f' on 2023-08-01
          program call               : xtb struc.xyz --opt loose --input .xc1 --gfn2

   ID    Z sym.   atoms
    1    6 C      1, 3, 5-7, 10, 11, 14
    2    7 N      2, 4, 9, 13
    3    8 O      8, 12
    4    1 H      15-25
constraining bond 2 17 to    4.0600000 Å, actual value:    2.0658315 Å

          :  Hamiltonian                  GFN2-xTB          :
 * total energy  :   -13.8456985 Eh     change       -0.6650680E-10 Eh
 * total energy  :   -29.3876447 Eh     change       -0.1554195E+02 Eh
 * total energy  :   -37.0760284 Eh     change       -0.7688384E+01 Eh
 * total energy  :   -40.6991446 Eh     change       -0.3623116E+01 Eh
 * total energy  :   -41.5161692 Eh     change       -0.8170247E+00 Eh
 * total energy  :   -41.6241553 Eh     change       -0.1079861E+00 Eh
 * total energy  :   -41.6355823 Eh     change       -0.1142697E-01 Eh
 * total energy  :   -41.7787126 Eh     change       -0.1431303E+00 Eh
 * total energy  :   -41.8123028 Eh     change       -0.3359022E-01 Eh
 * total energy  :   -41.8315519 Eh     change       -0.1924907E-01 Eh
 * total energy  :   -42.1986137 Eh     change       -0.1452426E-03 Eh
 * total energy  :   -42.1986370 Eh     change       -0.2329975E-04 Eh
 * total energy  :   -42.1987829 Eh     change       -0.1458954E-03 Eh
 * total energy  :   -42.1988446 Eh     change       -0.6168235E-04 Eh
 * total energy  :   -42.1989257 Eh     change       -0.8117482E-04 Eh
 * total energy  :   -42.1989708 Eh     change       -0.4509613E-04 Eh
 * total energy  :   -42.1990129 Eh     change       -0.4203189E-04 Eh
 * total energy  :   -42.1990501 Eh     change       -0.3726156E-04 Eh
 * total energy  :   -42.1990778 Eh     change       -0.2766015E-04 Eh
   *** GEOMETRY OPTIMIZATION CONVERGED AFTER 91 ITERATIONS ***

 final structure:
================
25
 xtb: 6.6.1 (8d0f1dd)
C            3.41560347540687        0.71764068426178       -0.03447891288466
N            2.45468129976126       -0.19148554737514       -0.00445113321947
C            2.58320725584508       -1.53841785780606        0.03259537780931
N            1.34424705762340       -2.12933647347362        0.03792611054156
C            0.41127005546370       -1.16664025685141        0.01563926523412
C            1.07355687284547        0.07749546245939       -0.01145097638888
C            0.31803586940122        1.24733297025819       -0.02752648754425
O            0.85244065008094        2.46195981550806       -0.04762618047371
N           -1.05023356512519        1.09463482034035       -0.01874071346074
C           -1.89182218851754        2.28477011940070       -0.00115832278870
C           -1.73089939275916       -0.13515787258903       -0.00669631112253
O           -2.92923318938347       -0.18943585923466       -0.00884667440519
N           -0.94197713408449       -1.27845162946086        0.00878548726514
C           -1.58313843943199       -2.57930808396991        0.02674584591854
H            3.15535930047592        1.75516898820170       -0.05380183878600
H            4.43793779134885        0.39684188534467       -0.02882644652882
H            0.18921237168442        3.17666814571334       -0.05619166410056
H            3.50870293186435       -2.06904639300396        0.03001049718842
H           -1.69000443042019        2.88711486502795        0.88842922198258
H           -1.76171689953006        2.86868501275266       -0.91574279680941
H           -2.92985890224498        1.94857296894607        0.04644163081527
H           -1.32452488444025       -3.11766707327296        0.93927404364140
H           -1.28574999242173       -3.15812791788412       -0.84810422787895
H           -2.65956987596892       -2.42005618153542        0.00004844086561
H            1.19490547662622       -3.12551605015946        0.06891838302947

          :  Hamiltonian                  GFN2-xTB          :
         :: total energy             -42.199077790896 Eh    ::
         :: gradient norm              0.003665769899 Eh/a0 ::
         :: HOMO-LUMO gap              1.421776646303 eV    ::
         :: SCC energy               -42.719425084823 Eh    ::
         :: -> dispersion             -0.023004704861 Eh    ::
         :: repulsion energy           0.520228300665 Eh    ::

    * Orbital Energies and Occupations

         #    Occupation            Energy/Eh            Energy/eV
      -------------------------------------------------------------
         1        2.0000           -0.8972864             -24.4164
       ...           ...                  ...                  ...
        25        2.0000           -0.6645402             -18.0831
        26        2.0000           -0.6595905             -17.9484
        27        2.0000           -0.6564971             -17.8642
        28        2.0000           -0.6499656             -17.6865
        29        2.0000           -0.6457676             -17.5722
        30        2.0000           -0.6223292             -16.9344
        31        1.9999           -0.6185332             -16.8311
        32        1.9999           -0.6087417             -16.5647
        33        1.9998           -0.6035178             -16.4226
        34        1.9996           -0.5900570             -16.0563
        35        1.9991           -0.5747635             -15.6401
        36        1.9966           -0.5545102             -15.0890
        37        1.6670           -0.4789950             -13.0341 (HOMO)
        38        0.3117           -0.4267456             -11.6123 (LUMO)
        39        0.0233           -0.3831725             -10.4267
        40        0.0031           -0.3508886              -9.5482
        41        0.0001           -0.2884572              -7.8493
        42        0.0000           -0.2082249              -5.6661
        43                         -0.1667532              -4.5376
        44                         -0.1363126              -3.7093
        45                         -0.1226750              -3.3382
        46                         -0.1148988              -3.1266
        47                         -0.0644861              -1.7548
        48                         -0.0457489              -1.2449
       ...                                ...                  ...
        67                          0.5310343              14.4502
      -------------------------------------------------------------
                  HL-Gap            0.0522493 Eh            1.4218 eV

     #   Z          covCN         q      C6AA      α(0)
     1   6 C        2.790    -0.103    30.579     9.058
     2   7 N        2.795     0.117    19.239     6.515
     3   6 C        3.027    -0.009    28.222     8.714
     4   7 N        2.768    -0.061    22.426     7.033
     5   6 C        3.020     0.099    25.787     8.330
     6   6 C        3.085    -0.020    28.405     8.737
     7   6 C        2.773     0.200    23.742     7.980
     8   8 O        1.659    -0.329    19.517     5.964
     9   7 N        2.743    -0.085    22.902     7.108
    10   6 C        3.701    -0.072    22.035     6.713
    11   6 C        2.723     0.315    21.641     7.616
    12   8 O        0.859    -0.372    21.128     6.163
    13   7 N        2.737    -0.057    22.351     7.022
    14   6 C        3.699    -0.071    22.032     6.713
    15   1 H        0.927     0.099     1.792     2.093
    16   1 H        0.926     0.088     1.894     2.152
    17   1 H        0.804     0.353     0.582     1.198
    18   1 H        0.927     0.105     1.742     2.064
    19   1 H        0.924     0.082     1.959     2.189
    20   1 H        0.924     0.083     1.947     2.182
    21   1 H        0.924     0.130     1.534     1.937
    22   1 H        0.924     0.083     1.947     2.182
    23   1 H        0.924     0.083     1.949     2.183
    24   1 H        0.925     0.124     1.584     1.968
    25   1 H        0.860     0.218     1.018     1.581

Wiberg/Mayer (AO) data.
largest (>0.10) Wiberg bond orders for each atom

     #   Z sym  total        # sym  WBO       # sym  WBO       # sym  WBO
 ---------------------------------------------------------------------------
     1   6 C    3.581 --     2 N    1.347    16 H    0.970    15 H    0.968
                             3 C    0.162
     2   7 N    3.733 --     1 C    1.347     3 C    1.233     6 C    1.064
     3   6 C    3.680 --     2 N    1.233     4 N    1.176    18 H    0.960
                             1 C    0.162
     4   7 N    3.550 --     5 C    1.262     3 C    1.176    25 H    0.924
     5   6 C    3.849 --     4 N    1.262     6 C    1.233    13 N    1.162
     6   6 C    3.906 --     7 C    1.309     5 C    1.233     2 N    1.064
     7   6 C    3.750 --     6 C    1.309     9 N    1.162     8 O    1.160
     8   8 O    2.176 --     7 C    1.160    17 H    0.836
     9   7 N    3.498 --     7 C    1.162    11 C    1.065    10 C    0.976
                            12 O    0.128
    10   6 C    3.928 --     9 N    0.976    20 H    0.967    19 H    0.967
                            21 H    0.959
    11   6 C    3.944 --    12 O    1.697    13 N    1.091     9 N    1.065
    12   8 O    2.058 --    11 C    1.697    13 N    0.134     9 N    0.128
    13   7 N    3.510 --     5 C    1.162    11 C    1.091    14 C    0.974
                            12 O    0.134
    14   6 C    3.927 --    13 N    0.974    23 H    0.971    22 H    0.971
                            24 H    0.966
    15   1 H    0.990 --     1 C    0.968
    16   1 H    0.991 --     1 C    0.970
    17   1 H    0.875 --     8 O    0.836
    18   1 H    0.988 --     3 C    0.960
    19   1 H    0.989 --    10 C    0.967
    20   1 H    0.989 --    10 C    0.967
    21   1 H    0.982 --    10 C    0.959
    22   1 H    0.989 --    14 C    0.971
    23   1 H    0.989 --    14 C    0.971
    24   1 H    0.984 --    14 C    0.966
    25   1 H    0.952 --     4 N    0.924
 ---------------------------------------------------------------------------

molecular dipole:
                 x           y           z       tot (Debye)
 q only:        1.426      -0.491       0.026
   full:        1.510      -0.579       0.032       4.111

           -------------------------------------------------
          | TOTAL ENERGY              -42.199077790896 Eh   |
          | GRADIENT NORM               0.003665769899 Eh/α |
          | HOMO-LUMO GAP               1.421776646303 eV   |
           -------------------------------------------------

 * finished run on 2024/06/05 at 20:00:09.483
