   * xtb version 6.6.1 (8d0f1dd) compiled by 'conda@1efc2f54142f' on 2023-08-01
          program call               : xtb struc.xyz --opt loose --input .xc1 --gfn2

   ID    Z sym.   atoms
    1    7 N      1, 17
    2    6 C      2-6, 8, 9, 11-16, 18-23, 25, 26, 28-33
    3    8 O      7, 10, 24, 27
    4    1 H      34-72
constraining bond 27 59 to    2.6333300 Å, actual value:    2.0766952 Å

          :  Hamiltonian                  GFN2-xTB          :
 * total energy  :   -99.4594542 Eh     change       -0.4035485E-08 Eh
 * total energy  :   -99.5628156 Eh     change       -0.1033613E+00 Eh
 * total energy  :   -99.7213415 Eh     change       -0.1585259E+00 Eh
 * total energy  :   -97.1430665 Eh     change        0.2578275E+01 Eh
 * total energy  :   -99.7887012 Eh     change       -0.2645635E+01 Eh
 * total energy  :   -99.8047841 Eh     change       -0.1608289E-01 Eh
 * total energy  :   -99.8102637 Eh     change       -0.5479595E-02 Eh
 * total energy  :   -99.8141219 Eh     change       -0.3858238E-02 Eh
 * total energy  :   -99.8187691 Eh     change       -0.4647145E-02 Eh
 * total energy  :   -99.8220774 Eh     change       -0.3308325E-02 Eh
 * total energy  :   -99.8431833 Eh     change       -0.1054416E-03 Eh
 * total energy  :   -99.8433000 Eh     change       -0.1166488E-03 Eh
 * total energy  :   -99.8434313 Eh     change       -0.1313087E-03 Eh
 * total energy  :   -99.8435953 Eh     change       -0.1640443E-03 Eh
 * total energy  :   -99.8436051 Eh     change       -0.9780924E-05 Eh
 * total energy  :   -99.8438025 Eh     change       -0.1973666E-03 Eh
 * total energy  :   -99.8438764 Eh     change       -0.7393990E-04 Eh
 * total energy  :   -99.8439365 Eh     change       -0.6005658E-04 Eh
 * total energy  :   -99.8439726 Eh     change       -0.3610767E-04 Eh
   *** GEOMETRY OPTIMIZATION CONVERGED AFTER 34 ITERATIONS ***

 final structure:
================
72
 xtb: 6.6.1 (8d0f1dd)
N           -1.96057488154556        2.92223903612028        2.21779498062603
C           -1.90811818473612        2.18535876654754        1.20881685343214
C           -3.04817310733514        1.95909499566503        0.25471014632809
C           -3.48494935598356        0.50369299549148        0.32195135530325
C           -4.39358333537448        0.00717186499342       -0.61564183568521
C           -4.84309358475054       -1.30101510968602       -0.56536629962564
O           -5.73030362806888       -1.85504301765139       -1.42200549237566
C           -6.35131370823718       -1.04136556572414       -2.38811179060776
C           -4.36281441391919       -2.16753147123063        0.45099669353262
O           -4.84981691765084       -3.42782493036466        0.41990438457864
C           -4.49297553878313       -4.32014748115131        1.44842516145700
C           -3.46144017303711       -1.67075976093594        1.37717366526094
C           -3.03230323578520       -0.34999010041985        1.31433171241054
C           -2.48946222413283        2.28737717278555       -1.15531317530918
C           -1.54970476724888        1.21791006573677       -1.74373061042735
C           -0.22446878613826        1.16769288140008       -1.08718083025213
N            0.40892867030053        0.05154294455700       -0.71034436810093
C            1.76672556283032        0.10448900623159       -0.22877913999075
C            2.77238037881409       -0.42027200809618       -1.27412420282204
C            4.18234422215581       -0.23625165669543       -0.79149196751450
C            4.91489600839774        0.89354181122458       -1.13867681500097
C            6.21784144470751        1.08042556993848       -0.70829338674464
C            6.83763441165831        0.12860923922617        0.10035083542475
O            8.09628343601632        0.18017688496678        0.57708176655503
C            8.92248113900945        1.26426121902232        0.20429301333286
C            6.08252405179619       -0.99545500437436        0.46077033051621
O            6.73737319626775       -1.98253272952778        1.27136327899819
C            7.00464452184452       -3.25781197771819        0.49418509944130
C            4.78332909730777       -1.18608918488792        0.02676124652806
C           -0.21372736779014       -1.24672502571424       -0.80689905668455
C           -4.28967691466075        2.85138505313601        0.55043912592848
C           -4.91593644252896        2.50771017177283        1.90015070830624
C           -3.98486261474760        4.34581285490149        0.48815694525922
H           -4.76644313339145        0.66107887914327       -1.38642911943678
H           -6.89274809400649       -0.21067618451577       -1.92510561298295
H           -7.05846841377166       -1.68873160914626       -2.90313996216103
H           -5.62888416783742       -0.65002944750782       -3.11212426017927
H           -4.78627700340447       -3.93824637289594        2.43103738756444
H           -5.03888912115142       -5.23844842011955        1.24111239663351
H           -3.41817283483836       -4.53009567214100        1.44417479616014
H           -3.09320102440300       -2.30002301299806        2.17124081259283
H           -2.35666548073242        0.00942196414974        2.07524619045922
H           -3.32658151576945        2.41263341871921       -1.84166416918559
H           -1.95796375295433        3.23884166357902       -1.10765836335191
H           -2.04358502573242        0.24849033048302       -1.72230540596074
H           -1.39114392444652        1.48906154886478       -2.79617059521196
H           -0.99415496313247        1.65443196237945        0.88096352012134
H            0.34045683657522        2.08504349237118       -1.02623481696859
H            1.84693826723619       -0.49275705932082        0.68510743341884
H            2.01997644959019        1.13819126843152        0.01611513820206
H            2.62760769736516        0.13138715762013       -2.20386512784097
H            2.58078288630075       -1.47630519417416       -1.46764376183571
H            4.46902666981412        1.64143685516054       -1.77637328084012
H            6.75361661497616        1.96344810699322       -1.01329272235141
H            8.52653188804229        2.21221013991969        0.57844512448488
H            9.04426252471577        1.31564820179854       -0.88065186669219
H            9.88688261746108        1.06664693325661        0.66790995416050
H            7.51941968539197       -3.91953588270593        1.18237426836973
H            6.30204661932152       -2.19504328849537        1.88420608869554
H            7.59060354479637       -2.99661484890392       -0.37729662873302
H            4.26109412578856       -2.09015120905701        0.30153683507880
H           -0.38024206983039       -1.52847500045679       -1.84886139951957
H           -1.17386868128652       -1.25063867315671       -0.28426534515418
H            0.43228004578105       -1.98966700307936       -0.34677062898563
H           -5.02691124546129        2.62434966787841       -0.22831596284405
H           -4.22153582506474        2.73726970090365        2.70168809854576
H           -5.18174529833669        1.45465470444759        1.95259713071106
H           -5.81864582450495        3.09598184307626        2.04321259323885
H           -3.22178450725806        4.60500777686038        1.21514854563006
H           -3.65744380362645        4.65185157519092       -0.50193904719082
H           -4.88640706924854        4.90351444601207        0.72786108332148
H           -1.11333505460951        3.01929925439267        2.76969719056003

          :  Hamiltonian                  GFN2-xTB          :
         :: total energy             -99.843972585367 Eh    ::
         :: gradient norm              0.002952519220 Eh/a0 ::
         :: HOMO-LUMO gap              1.019147582881 eV    ::
         :: SCC energy              -100.671336105602 Eh    ::
         :: -> dispersion             -0.075631466325 Eh    ::
         :: repulsion energy           1.438592567368 Eh    ::

    * Orbital Energies and Occupations

         #    Occupation            Energy/Eh            Energy/eV
      -------------------------------------------------------------
         1        2.0000           -0.8769674             -23.8635
       ...           ...                  ...                  ...
        78        1.9993           -0.5255565             -14.3011
        79        1.9992           -0.5229991             -14.2315
        80        1.9989           -0.5182104             -14.1012
        81        1.9988           -0.5172356             -14.0747
        82        1.9983           -0.5113679             -13.9150
        83        1.9973           -0.5040217             -13.7151
        84        1.9969           -0.5014034             -13.6439
        85        1.9963           -0.4985255             -13.5656
        86        1.9935           -0.4897304             -13.3262
        87        1.9868           -0.4784810             -13.0201
        88        1.9557           -0.4591163             -12.4932
        89        1.9127           -0.4480078             -12.1909
        90        1.5538           -0.4188863             -11.3985 (HOMO)
        91        0.4929           -0.3814333             -10.3793 (LUMO)
        92        0.0666           -0.3458031              -9.4098
        93        0.0276           -0.3315120              -9.0209
        94        0.0196           -0.3260781              -8.8730
        95        0.0051           -0.3045743              -8.2879
        96        0.0041           -0.3011012              -8.1934
        97        0.0000           -0.2160021              -5.8777
        98        0.0000           -0.1784927              -4.8570
        99        0.0000           -0.1665384              -4.5317
       100                         -0.1282349              -3.4895
       101                         -0.0855374              -2.3276
       ...                                ...                  ...
       171                          0.5849911              15.9184
      -------------------------------------------------------------
                  HL-Gap            0.0374530 Eh            1.0191 eV

     #   Z          covCN         q      C6AA      α(0)
     1   7 N        1.773    -0.278    28.037     7.841
     2   6 C        2.827     0.101    25.762     8.317
     3   6 C        3.907     0.006    20.419     6.423
     4   6 C        2.974     0.001    28.007     8.681
     5   6 C        2.921    -0.080    30.013     8.984
     6   6 C        2.863     0.127    25.210     8.230
     7   8 O        1.706    -0.237    17.922     5.716
     8   6 C        3.644     0.030    20.410     6.494
     9   6 C        2.864     0.126    25.241     8.235
    10   8 O        1.706    -0.236    17.910     5.714
    11   6 C        3.645     0.029    20.411     6.493
    12   6 C        2.914    -0.076    29.904     8.967
    13   6 C        2.922    -0.055    29.359     8.886
    14   6 C        3.812    -0.063    21.706     6.631
    15   6 C        3.802    -0.067    21.792     6.646
    16   6 C        2.841    -0.004    28.107     8.688
    17   7 N        2.729    -0.003    21.330     6.859
    18   6 C        3.753    -0.014    20.875     6.515
    19   6 C        3.807    -0.074    21.916     6.664
    20   6 C        2.970     0.003    27.950     8.672
    21   6 C        2.923    -0.042    29.035     8.836
    22   6 C        2.918    -0.067    29.679     8.934
    23   6 C        2.861     0.140    24.938     8.185
    24   8 O        1.705    -0.242    18.003     5.729
    25   6 C        3.645     0.024    20.502     6.507
    26   6 C        2.856     0.077    26.280     8.402
    27   8 O        2.486    -0.129    16.219     5.439
    28   6 C        2.689    -0.149    31.798     9.228
    29   6 C        2.919    -0.061    29.517     8.909
    30   6 C        3.699    -0.068    21.971     6.704
    31   6 C        3.853    -0.007    20.673     6.467
    32   6 C        3.756    -0.117    22.802     6.809
    33   6 C        3.755    -0.118    22.814     6.810
    34   1 H        0.926     0.049     2.328     2.386
    35   1 H        0.924     0.051     2.307     2.375
    36   1 H        0.925     0.078     2.002     2.213
    37   1 H        0.924     0.044     2.391     2.418
    38   1 H        0.924     0.052     2.301     2.372
    39   1 H        0.925     0.078     2.004     2.214
    40   1 H        0.924     0.044     2.395     2.420
    41   1 H        0.926     0.047     2.354     2.399
    42   1 H        0.926     0.035     2.516     2.481
    43   1 H        0.925     0.057     2.232     2.336
    44   1 H        0.924     0.051     2.313     2.378
    45   1 H        0.925     0.064     2.156     2.296
    46   1 H        0.923     0.072     2.059     2.244
    47   1 H        0.922     0.002     3.031     2.723
    48   1 H        0.926     0.060     2.200     2.320
    49   1 H        0.924     0.061     2.191     2.315
    50   1 H        0.924     0.064     2.154     2.295
    51   1 H        0.924     0.060     2.195     2.317
    52   1 H        0.924     0.061     2.186     2.312
    53   1 H        0.926     0.058     2.225     2.333
    54   1 H        0.926     0.067     2.120     2.277
    55   1 H        0.924     0.054     2.266     2.354
    56   1 H        0.924     0.057     2.232     2.337
    57   1 H        0.925     0.082     1.954     2.186
    58   1 H        0.925     0.034     2.529     2.487
    59   1 H        0.810     0.343     0.605     1.221
    60   1 H        0.925     0.038     2.473     2.459
    61   1 H        0.926     0.062     2.173     2.305
    62   1 H        0.924     0.072     2.061     2.245
    63   1 H        0.924     0.078     2.000     2.212
    64   1 H        0.925     0.074     2.044     2.236
    65   1 H        0.924     0.034     2.527     2.486
    66   1 H        0.925     0.066     2.128     2.281
    67   1 H        0.925     0.034     2.534     2.489
    68   1 H        0.925     0.048     2.348     2.396
    69   1 H        0.925     0.060     2.200     2.319
    70   1 H        0.925     0.032     2.552     2.498
    71   1 H        0.925     0.051     2.304     2.374
    72   1 H        0.860     0.150     1.404     1.856

Wiberg/Mayer (AO) data.
largest (>0.10) Wiberg bond orders for each atom

     #   Z sym  total        # sym  WBO       # sym  WBO       # sym  WBO
 ---------------------------------------------------------------------------
     1   7 N    3.031 --     2 C    1.948    72 H    0.945
     2   6 C    3.925 --     1 N    1.948     3 C    0.996    47 H    0.906
     3   6 C    3.979 --     2 C    0.996     4 C    0.970    14 C    0.956
                            31 C    0.945
     4   6 C    3.958 --    13 C    1.421     5 C    1.366     3 C    0.970
     5   6 C    3.967 --     6 C    1.406     4 C    1.366    34 H    0.958
     6   6 C    3.914 --     5 C    1.406     9 C    1.230     7 O    1.091
     7   8 O    2.252 --     6 C    1.091     8 C    0.980
     8   6 C    3.936 --     7 O    0.980    36 H    0.977    35 H    0.974
                            37 H    0.974
     9   6 C    3.911 --    12 C    1.399     6 C    1.230    10 O    1.091
    10   8 O    2.250 --     9 C    1.091    11 C    0.980
    11   6 C    3.936 --    10 O    0.980    39 H    0.977    40 H    0.975
                            38 H    0.974
    12   6 C    3.968 --     9 C    1.399    13 C    1.398    41 H    0.964
    13   6 C    3.963 --     4 C    1.421    12 C    1.398    42 H    0.963
    14   6 C    3.971 --    15 C    0.980    44 H    0.973    43 H    0.969
                             3 C    0.956
    15   6 C    3.988 --    16 C    1.059    14 C    0.980    45 H    0.962
                            46 H    0.931
    16   6 C    3.523 --    17 N    1.352    15 C    1.059    48 H    0.959
    17   7 N    3.432 --    16 C    1.352    30 C    1.000    18 C    0.995
    18   6 C    3.964 --    17 N    0.995    50 H    0.969    19 C    0.968
                            49 H    0.964
    19   6 C    3.978 --    20 C    1.011    51 H    0.972    52 H    0.970
                            18 C    0.968
    20   6 C    3.965 --    21 C    1.396    29 C    1.392    19 C    1.011
    21   6 C    3.949 --    22 C    1.440    20 C    1.396    53 H    0.967
    22   6 C    3.952 --    21 C    1.440    23 C    1.345    54 H    0.963
    23   6 C    3.923 --    22 C    1.345    26 C    1.307    24 O    1.105
    24   8 O    2.267 --    23 C    1.105    25 C    0.970
    25   6 C    3.928 --    57 H    0.977    56 H    0.976    55 H    0.976
                            24 O    0.970
    26   6 C    3.819 --    29 C    1.413    23 C    1.307    27 O    0.887
    27   8 O    2.564 --    26 C    0.887    59 H    0.867    28 C    0.754
    28   6 C    2.737 --    60 H    0.978    58 H    0.971    27 O    0.754
    29   6 C    3.943 --    26 C    1.413    20 C    1.392    61 H    0.963
    30   6 C    3.960 --    17 N    1.000    64 H    0.978    62 H    0.968
                            63 H    0.961
    31   6 C    3.977 --    33 C    1.009    32 C    1.009    65 H    0.962
                             3 C    0.945
    32   6 C    3.984 --    31 C    1.009    67 H    0.983    68 H    0.983
                            66 H    0.976
    33   6 C    3.986 --    31 C    1.009    70 H    0.984    71 H    0.981
                            69 H    0.977
    34   1 H    0.996 --     5 C    0.958
    35   1 H    0.995 --     8 C    0.974
    36   1 H    0.993 --     8 C    0.977
    37   1 H    0.995 --     8 C    0.974
    38   1 H    0.995 --    11 C    0.974
    39   1 H    0.993 --    11 C    0.977
    40   1 H    0.995 --    11 C    0.975
    41   1 H    0.996 --    12 C    0.964
    42   1 H    0.998 --    13 C    0.963
    43   1 H    0.995 --    14 C    0.969
    44   1 H    0.997 --    14 C    0.973
    45   1 H    0.995 --    15 C    0.962
    46   1 H    0.968 --    15 C    0.931
    47   1 H    0.990 --     2 C    0.906
    48   1 H    0.996 --    16 C    0.959
    49   1 H    0.990 --    18 C    0.964
    50   1 H    0.995 --    18 C    0.969
    51   1 H    0.996 --    19 C    0.972
    52   1 H    0.995 --    19 C    0.970
    53   1 H    0.997 --    21 C    0.967
    54   1 H    0.995 --    22 C    0.963
    55   1 H    0.996 --    25 C    0.976
    56   1 H    0.996 --    25 C    0.976
    57   1 H    0.993 --    25 C    0.977
    58   1 H    0.985 --    28 C    0.971
    59   1 H    0.881 --    27 O    0.867
    60   1 H    0.984 --    28 C    0.978
    61   1 H    0.995 --    29 C    0.963
    62   1 H    0.985 --    30 C    0.968
    63   1 H    0.986 --    30 C    0.961
    64   1 H    0.994 --    30 C    0.978
    65   1 H    0.995 --    31 C    0.962
    66   1 H    0.993 --    32 C    0.976
    67   1 H    0.998 --    32 C    0.983
    68   1 H    0.995 --    32 C    0.983
    69   1 H    0.994 --    33 C    0.977
    70   1 H    0.998 --    33 C    0.984
    71   1 H    0.995 --    33 C    0.981
    72   1 H    0.973 --     1 N    0.945
 ---------------------------------------------------------------------------

molecular dipole:
                 x           y           z       tot (Debye)
 q only:        2.908      -0.035      -0.303
   full:        3.524       0.034      -0.110       8.963

           -------------------------------------------------
          | TOTAL ENERGY              -99.843972585367 Eh   |
          | GRADIENT NORM               0.002952519220 Eh/α |
          | HOMO-LUMO GAP               1.019147582881 eV   |
           -------------------------------------------------

 * finished run on 2024/04/06 at 11:16:04.304
