   * xtb version 6.6.1 (8d0f1dd) compiled by 'conda@1efc2f54142f' on 2023-08-01
          program call               : xtb xtbopt.xyz --opt crude --input .xc2 --gfn2

   ID    Z sym.   atoms
    1    7 N      1, 17
    2    6 C      2-6, 8, 9, 11-16, 18-23, 25, 26, 28-33
    3    8 O      7, 10, 24, 27
    4    1 H      34-72
########################################################################
[WARNING] Please study the warnings concerning your input carefully
-1- readin_getIntValue: could not parse ''
########################################################################

          :  Hamiltonian                  GFN2-xTB          :
 * total energy  :   -99.2314548 Eh     change       -0.3081055E-09 Eh
 * total energy  :   -99.2790977 Eh     change       -0.4764295E-01 Eh
 * total energy  :   -99.2794448 Eh     change       -0.3470121E-03 Eh
 * total energy  :   -99.2795928 Eh     change       -0.1480073E-03 Eh
   *** GEOMETRY OPTIMIZATION CONVERGED AFTER 4 ITERATIONS ***

 final structure:
================
72
 xtb: 6.6.1 (8d0f1dd)
N           -1.96049329486207        2.92195809693892        2.21871296637587
C           -1.90784659638595        2.18670979499382        1.20841256606490
C           -3.04773037163287        1.95952979026666        0.25463586573223
C           -3.48453560533492        0.50420364792164        0.32286761397609
C           -4.39130640722035        0.00712975557186       -0.61606305074060
C           -4.84024551503175       -1.30122692260051       -0.56668681641438
O           -5.72496249878384       -1.85557311688883       -1.42562717139683
C           -6.34523899862222       -1.04100470340470       -2.39155691281033
C           -4.36155189731556       -2.16724418371527        0.45073905090060
O           -4.84749163021384       -3.42791106647815        0.41863297266906
C           -4.49228506604918       -4.32006411444252        1.44781075761610
C           -3.46249450408540       -1.66967488060679        1.37864322137611
C           -3.03349062384360       -0.34881173609790        1.31638894777515
C           -2.48893832211720        2.28547426183474       -1.15594501633570
C           -1.54727425678880        1.21588876644283       -1.74135752348361
C           -0.22272439295392        1.16612393983414       -1.08303894506661
N            0.41020077515740        0.05005791452532       -0.70396430239068
C            1.76914108108653        0.10273246962293       -0.22496782029734
C            2.77303526616831       -0.42012320649316       -1.27300402606301
C            4.18535541470291       -0.23651481896820       -0.79583835315902
C            4.91227154114695        0.89777522299476       -1.13998182614530
C            6.21572362891970        1.08892646283928       -0.71254515234872
C            6.84072575872804        0.13476396438035        0.08952128493618
O            8.09888534852149        0.18925533356160        0.56790751445573
C            8.92365909367590        1.27596299429725        0.20020661438079
C            6.09312202973350       -0.99788479562274        0.44478828716657
O            6.76859121024261       -1.97683454679517        1.23823393962090
C            6.99515920045359       -3.25849751527932        0.48065494221752
C            4.79348137663579       -1.19030251405650        0.01320573871246
C           -0.21326539398129       -1.24809200746042       -0.79768431278297
C           -4.28942276116290        2.85163493194139        0.54992666634037
C           -4.91456271137323        2.50873779799180        1.90035004697453
C           -3.98536276123182        4.34611517303289        0.48698561876613
H           -4.76299731756845        0.66080843892125       -1.38754624531587
H           -6.88570249710576       -0.20984638584581       -1.92826449035753
H           -7.05311765511973       -1.68739132010560       -2.90676534601573
H           -5.62235989777468       -0.65024497719719       -3.11541316675053
H           -4.78758926029684       -3.93829553808004        2.42981933299148
H           -5.03744626180489       -5.23854889428259        1.23940813800755
H           -3.41743122353082       -4.52955522386232        1.44559329217017
H           -3.09579565594961       -2.29871151052061        2.17360877795499
H           -2.35935846231488        0.01133939220498        2.07820109022067
H           -3.32597282691333        2.40716697394330       -1.84289391369827
H           -1.95931088145242        3.23797039774404       -1.11042618079685
H           -2.04101771327070        0.24628735079437       -1.71971797523589
H           -1.38736886912327        1.48596591021452       -2.79385035647486
H           -0.99288177484803        1.65825677451748        0.87937472982309
H            0.34335854755358        2.08310097723964       -1.02520378613606
H            1.85087620657351       -0.49556349913536        0.68802592581969
H            2.02228713843452        1.13620510516544        0.02087263274884
H            2.62478423420704        0.13336939755229       -2.20122339893092
H            2.58112486141533       -1.47568967160804       -1.46821954910533
H            4.45987470903140        1.64677151575144       -1.77181235022472
H            6.74564736486663        1.97702472500778       -1.01360916544289
H            8.52399284530569        2.22248446218558        0.57364554328327
H            9.05063175667329        1.32883689230649       -0.88402012981124
H            9.88612134863799        1.07969623440755        0.66815216330281
H            7.49576447805105       -3.92942859009580        1.16744566851521
H            6.22077713038006       -2.23459254125467        1.99995279575527
H            7.58100529188218       -3.02227747148400       -0.39823012363019
H            4.27594385880301       -2.09759636451651        0.28630204132374
H           -0.37732813616021       -1.53361839017539       -1.83916011319260
H           -1.17476964090386       -1.24936425964568       -0.27762168547856
H            0.43091762436650       -1.98998251818488       -0.33315592916798
H           -5.02686554687550        2.62386713789067       -0.22836169304936
H           -4.21980064008756        2.74015200610845        2.70096494735568
H           -5.17882884293384        1.45541393867676        1.95435567517974
H           -5.81791230973313        3.09589705371388        2.04344468247634
H           -3.22509567796540        4.60646062877794        1.21653615478676
H           -3.65448730832715        4.65146278731021       -0.50221551571613
H           -4.88820903499830        4.90345674478019        0.72277096919150
H           -1.11307248029636        3.01963164319557        2.77013800960339

          :  Hamiltonian                  GFN2-xTB          :
         :: total energy             -99.279592764099 Eh    ::
         :: gradient norm              0.003317036708 Eh/a0 ::
         :: HOMO-LUMO gap              1.007494737407 eV    ::
         :: SCC energy              -100.649237597121 Eh    ::
         :: -> dispersion             -0.075635471154 Eh    ::
         :: repulsion energy           1.368354344623 Eh    ::

    * Orbital Energies and Occupations

         #    Occupation            Energy/Eh            Energy/eV
      -------------------------------------------------------------
         1        2.0000           -0.8681425             -23.6234
       ...           ...                  ...                  ...
        78        1.9993           -0.5250962             -14.2886
        79        1.9992           -0.5222110             -14.2101
        80        1.9989           -0.5178313             -14.0909
        81        1.9989           -0.5168083             -14.0631
        82        1.9984           -0.5109320             -13.9032
        83        1.9974           -0.5036011             -13.7037
        84        1.9969           -0.5010196             -13.6334
        85        1.9963           -0.4980829             -13.5535
        86        1.9934           -0.4889109             -13.3039
        87        1.9870           -0.4780174             -13.0075
        88        1.9565           -0.4586289             -12.4799
        89        1.9143           -0.4475668             -12.1789
        90        1.5471           -0.4178286             -11.3697 (HOMO)
        91        0.4958           -0.3808038             -10.3622 (LUMO)
        92        0.0668           -0.3450816              -9.3901
        93        0.0278           -0.3308679              -9.0034
        94        0.0200           -0.3256058              -8.8602
        95        0.0052           -0.3040799              -8.2744
        96        0.0042           -0.3005980              -8.1797
        97        0.0000           -0.2147570              -5.8438
        98        0.0000           -0.1779672              -4.8427
        99        0.0000           -0.1760037              -4.7893
       100                         -0.1280823              -3.4853
       101                         -0.0788749              -2.1463
       ...                                ...                  ...
       171                          0.5856206              15.9355
      -------------------------------------------------------------
                  HL-Gap            0.0370248 Eh            1.0075 eV

     #   Z          covCN         q      C6AA      α(0)
     1   7 N        1.773    -0.279    28.047     7.842
     2   6 C        2.827     0.101    25.763     8.317
     3   6 C        3.907     0.006    20.419     6.423
     4   6 C        2.974     0.001    28.007     8.681
     5   6 C        2.921    -0.081    30.014     8.984
     6   6 C        2.863     0.127    25.212     8.230
     7   8 O        1.706    -0.237    17.926     5.716
     8   6 C        3.644     0.030    20.409     6.493
     9   6 C        2.864     0.126    25.243     8.236
    10   8 O        1.706    -0.236    17.915     5.715
    11   6 C        3.645     0.030    20.409     6.493
    12   6 C        2.914    -0.076    29.906     8.967
    13   6 C        2.922    -0.055    29.360     8.886
    14   6 C        3.812    -0.063    21.705     6.631
    15   6 C        3.802    -0.067    21.790     6.646
    16   6 C        2.841    -0.004    28.114     8.689
    17   7 N        2.729    -0.004    21.343     6.861
    18   6 C        3.753    -0.013    20.872     6.515
    19   6 C        3.807    -0.074    21.915     6.664
    20   6 C        2.969     0.003    27.956     8.673
    21   6 C        2.923    -0.042    29.040     8.837
    22   6 C        2.917    -0.068    29.684     8.934
    23   6 C        2.861     0.141    24.932     8.184
    24   8 O        1.706    -0.242    18.009     5.730
    25   6 C        3.645     0.025    20.495     6.507
    26   6 C        2.857     0.078    26.244     8.397
    27   8 O        2.485    -0.120    16.093     5.418
    28   6 C        2.694    -0.145    31.703     9.215
    29   6 C        2.918    -0.062    29.537     8.912
    30   6 C        3.698    -0.068    21.967     6.703
    31   6 C        3.853    -0.007    20.672     6.467
    32   6 C        3.756    -0.117    22.803     6.809
    33   6 C        3.755    -0.118    22.811     6.810
    34   1 H        0.926     0.049     2.329     2.387
    35   1 H        0.924     0.051     2.309     2.376
    36   1 H        0.925     0.078     2.004     2.214
    37   1 H        0.924     0.044     2.392     2.419
    38   1 H        0.924     0.051     2.303     2.373
    39   1 H        0.925     0.077     2.006     2.215
    40   1 H        0.924     0.044     2.398     2.422
    41   1 H        0.926     0.047     2.357     2.401
    42   1 H        0.926     0.035     2.518     2.482
    43   1 H        0.925     0.057     2.234     2.337
    44   1 H        0.924     0.050     2.314     2.379
    45   1 H        0.925     0.064     2.158     2.297
    46   1 H        0.923     0.072     2.063     2.246
    47   1 H        0.922     0.002     3.030     2.722
    48   1 H        0.926     0.060     2.204     2.322
    49   1 H        0.924     0.060     2.199     2.319
    50   1 H        0.924     0.064     2.157     2.297
    51   1 H        0.924     0.060     2.197     2.318
    52   1 H        0.924     0.061     2.190     2.314
    53   1 H        0.926     0.057     2.232     2.336
    54   1 H        0.926     0.066     2.127     2.280
    55   1 H        0.924     0.054     2.272     2.357
    56   1 H        0.924     0.057     2.236     2.339
    57   1 H        0.925     0.082     1.959     2.189
    58   1 H        0.925     0.032     2.556     2.500
    59   1 H        0.804     0.343     0.605     1.222
    60   1 H        0.925     0.037     2.483     2.464
    61   1 H        0.926     0.061     2.189     2.314
    62   1 H        0.924     0.072     2.065     2.247
    63   1 H        0.924     0.078     2.002     2.212
    64   1 H        0.925     0.073     2.049     2.238
    65   1 H        0.924     0.034     2.529     2.487
    66   1 H        0.925     0.066     2.128     2.281
    67   1 H        0.925     0.034     2.535     2.490
    68   1 H        0.925     0.048     2.350     2.397
    69   1 H        0.925     0.060     2.201     2.320
    70   1 H        0.925     0.032     2.553     2.499
    71   1 H        0.925     0.051     2.306     2.375
    72   1 H        0.860     0.149     1.406     1.857

Wiberg/Mayer (AO) data.
largest (>0.10) Wiberg bond orders for each atom

     #   Z sym  total        # sym  WBO       # sym  WBO       # sym  WBO
 ---------------------------------------------------------------------------
     1   7 N    3.031 --     2 C    1.948    72 H    0.945
     2   6 C    3.924 --     1 N    1.948     3 C    0.996    47 H    0.905
     3   6 C    3.979 --     2 C    0.996     4 C    0.970    14 C    0.956
                            31 C    0.945
     4   6 C    3.959 --    13 C    1.421     5 C    1.366     3 C    0.970
     5   6 C    3.967 --     6 C    1.406     4 C    1.366    34 H    0.958
     6   6 C    3.914 --     5 C    1.406     9 C    1.230     7 O    1.090
     7   8 O    2.252 --     6 C    1.090     8 C    0.980
     8   6 C    3.936 --     7 O    0.980    36 H    0.977    35 H    0.974
                            37 H    0.974
     9   6 C    3.911 --    12 C    1.399     6 C    1.230    10 O    1.091
    10   8 O    2.250 --     9 C    1.091    11 C    0.980
    11   6 C    3.936 --    10 O    0.980    39 H    0.977    40 H    0.975
                            38 H    0.974
    12   6 C    3.968 --     9 C    1.399    13 C    1.398    41 H    0.964
    13   6 C    3.963 --     4 C    1.421    12 C    1.398    42 H    0.963
    14   6 C    3.971 --    15 C    0.980    44 H    0.973    43 H    0.969
                             3 C    0.956
    15   6 C    3.988 --    16 C    1.059    14 C    0.980    45 H    0.962
                            46 H    0.932
    16   6 C    3.522 --    17 N    1.350    15 C    1.059    48 H    0.960
    17   7 N    3.430 --    16 C    1.350    30 C    1.000    18 C    0.995
    18   6 C    3.964 --    17 N    0.995    50 H    0.969    19 C    0.968
                            49 H    0.964
    19   6 C    3.978 --    20 C    1.011    51 H    0.972    52 H    0.970
                            18 C    0.968
    20   6 C    3.964 --    21 C    1.397    29 C    1.392    19 C    1.011
    21   6 C    3.949 --    22 C    1.439    20 C    1.397    53 H    0.967
    22   6 C    3.952 --    21 C    1.439    23 C    1.346    54 H    0.963
    23   6 C    3.923 --    22 C    1.346    26 C    1.304    24 O    1.104
    24   8 O    2.266 --    23 C    1.104    25 C    0.970
    25   6 C    3.928 --    57 H    0.977    56 H    0.976    55 H    0.976
                            24 O    0.970
    26   6 C    3.823 --    29 C    1.414    23 C    1.304    27 O    0.893
    27   8 O    2.570 --    26 C    0.893    59 H    0.855    28 C    0.767
    28   6 C    2.747 --    60 H    0.976    58 H    0.971    27 O    0.767
    29   6 C    3.943 --    26 C    1.414    20 C    1.392    61 H    0.963
    30   6 C    3.960 --    17 N    1.000    64 H    0.978    62 H    0.968
                            63 H    0.961
    31   6 C    3.977 --    33 C    1.009    32 C    1.009    65 H    0.962
                             3 C    0.945
    32   6 C    3.984 --    31 C    1.009    67 H    0.983    68 H    0.983
                            66 H    0.976
    33   6 C    3.986 --    31 C    1.009    70 H    0.984    71 H    0.981
                            69 H    0.978
    34   1 H    0.996 --     5 C    0.958
    35   1 H    0.995 --     8 C    0.974
    36   1 H    0.993 --     8 C    0.977
    37   1 H    0.995 --     8 C    0.974
    38   1 H    0.995 --    11 C    0.974
    39   1 H    0.993 --    11 C    0.977
    40   1 H    0.995 --    11 C    0.975
    41   1 H    0.996 --    12 C    0.964
    42   1 H    0.998 --    13 C    0.963
    43   1 H    0.995 --    14 C    0.969
    44   1 H    0.997 --    14 C    0.973
    45   1 H    0.995 --    15 C    0.962
    46   1 H    0.968 --    15 C    0.932
    47   1 H    0.990 --     2 C    0.905
    48   1 H    0.996 --    16 C    0.960
    49   1 H    0.990 --    18 C    0.964
    50   1 H    0.995 --    18 C    0.969
    51   1 H    0.996 --    19 C    0.972
    52   1 H    0.995 --    19 C    0.970
    53   1 H    0.997 --    21 C    0.967
    54   1 H    0.995 --    22 C    0.963
    55   1 H    0.996 --    25 C    0.976
    56   1 H    0.996 --    25 C    0.976
    57   1 H    0.993 --    25 C    0.977
    58   1 H    0.985 --    28 C    0.971
    59   1 H    0.879 --    27 O    0.855
    60   1 H    0.984 --    28 C    0.976
    61   1 H    0.996 --    29 C    0.963
    62   1 H    0.985 --    30 C    0.968
    63   1 H    0.986 --    30 C    0.961
    64   1 H    0.994 --    30 C    0.978
    65   1 H    0.995 --    31 C    0.962
    66   1 H    0.993 --    32 C    0.976
    67   1 H    0.998 --    32 C    0.983
    68   1 H    0.995 --    32 C    0.983
    69   1 H    0.994 --    33 C    0.978
    70   1 H    0.998 --    33 C    0.984
    71   1 H    0.995 --    33 C    0.981
    72   1 H    0.974 --     1 N    0.945
 ---------------------------------------------------------------------------

molecular dipole:
                 x           y           z       tot (Debye)
 q only:        2.964      -0.101      -0.189
   full:        3.588      -0.029      -0.038       9.120

           -------------------------------------------------
          | TOTAL ENERGY              -99.279592764099 Eh   |
          | GRADIENT NORM               0.003317036708 Eh/α |
          | HOMO-LUMO GAP               1.007494737407 eV   |
           -------------------------------------------------

 * finished run on 2024/04/06 at 11:16:05.250
