   * xtb version 6.6.1 (8d0f1dd) compiled by 'conda@1efc2f54142f' on 2023-08-01
          program call               : xtb struc.xyz --opt loose --input .xc1 --gfn2

   ID    Z sym.   atoms
    1    7 N      1, 17
    2    6 C      2-6, 8, 9, 11-16, 18-23, 25, 26, 28-33
    3    8 O      7, 10, 24, 27
    4    1 H      34-72
constraining bond 31 33 to    4.0000000 Å, actual value:    1.5258461 Å

          :  Hamiltonian                  GFN2-xTB          :
 * total energy  :   -98.3111286 Eh     change       -0.4035485E-08 Eh
 * total energy  :   -98.5384523 Eh     change       -0.2273238E+00 Eh
 * total energy  :   -98.7596020 Eh     change       -0.2211497E+00 Eh
 * total energy  :   -98.9918889 Eh     change       -0.2322868E+00 Eh
 * total energy  :   -99.1265565 Eh     change       -0.1346676E+00 Eh
 * total energy  :   -99.1758198 Eh     change       -0.4926334E-01 Eh
 * total energy  :   -99.2114641 Eh     change       -0.3564423E-01 Eh
 * total energy  :   -99.2336006 Eh     change       -0.2213649E-01 Eh
 * total energy  :   -99.2458052 Eh     change       -0.1220465E-01 Eh
 * total energy  :   -99.2549794 Eh     change       -0.9174232E-02 Eh
 * total energy  :   -99.2840719 Eh     change       -0.6579673E-04 Eh
 * total energy  :   -99.2841761 Eh     change       -0.1041543E-03 Eh
 * total energy  :   -99.2843155 Eh     change       -0.1394768E-03 Eh
 * total energy  :   -99.2844220 Eh     change       -0.1064713E-03 Eh
 * total energy  :   -99.2845373 Eh     change       -0.1152865E-03 Eh
 * total energy  :   -99.2846296 Eh     change       -0.9233346E-04 Eh
 * total energy  :   -99.2847013 Eh     change       -0.7168185E-04 Eh
 * total energy  :   -99.2847526 Eh     change       -0.5123604E-04 Eh
 * total energy  :   -99.2847971 Eh     change       -0.4454415E-04 Eh
   *** GEOMETRY OPTIMIZATION CONVERGED AFTER 45 ITERATIONS ***

 final structure:
================
72
 xtb: 6.6.1 (8d0f1dd)
N           -1.63470851308519        1.61915219609293        2.38547407903442
C           -1.70580345407988        1.98196154089279        1.17331354187428
C           -2.87023392261069        1.78623635024458        0.31404844826032
C           -3.86092638518864        0.53396877630864        0.58163846352933
C           -4.42515976509083       -0.11684875740933       -0.59113325438034
C           -4.58339511658674       -1.47093540615193       -0.67451762575678
O           -5.09971010123027       -2.13510872942693       -1.73351385634122
C           -5.58509529551303       -1.39915284631601       -2.83207459378548
C           -4.20919889857953       -2.30869158640859        0.42465981378521
O           -4.41069842345836       -3.62312663642490        0.24628810098076
C           -4.20947279273091       -4.50847484192520        1.32524585947304
C           -3.70504073903013       -1.70475565813888        1.58249491433560
C           -3.54244128268727       -0.35103671467244        1.67894738277929
C           -2.59402282104306        2.13479673106230       -1.13608263535740
C           -1.69658149303803        1.08350273666173       -1.83114477473089
C           -0.31105626585513        1.09957110836805       -1.31722673424471
N            0.28259330237792        0.12102026521889       -0.64257930742103
C            1.67499778627345        0.24064755543956       -0.28074957527140
C            2.60575176725786       -0.37169826607397       -1.34625080872919
C            4.03982470100161       -0.17098789362142       -0.94286825180714
C            4.67769705536099        1.03358285743849       -1.19062528433344
C            5.98579236041482        1.24228722067634       -0.78157699206255
C            6.68389867317301        0.24686254324683       -0.11370578303029
O            7.95104941010137        0.33993605200384        0.33372558746687
C            8.66405741143771        1.53823624699018        0.13231781895599
C            6.04112616715040       -0.99601251274512        0.13706067094756
O            6.79521046792540       -1.91240504661674        0.77831550686013
C            6.25849352491536       -3.18822353789041        1.03277188181416
C            4.73060135953202       -1.17887770532831       -0.27473822805973
C           -0.38676173781025       -1.12306874863152       -0.34728525124649
C           -4.26142035226515        1.98172340311081        0.84975260928482
C           -4.52581192814990        2.47837797672310        2.24237374861697
C           -3.26412205165796        5.81618433224700        0.31878788091007
H           -4.77692006375067        0.50869324531048       -1.39384692284510
H           -6.39479338213943       -0.72484807016178       -2.53794684423555
H           -5.97287861540221       -2.13814156750465       -3.53038657063958
H           -4.78832590471673       -0.82608171604573       -3.32018112698913
H           -4.85507051230581       -4.25639010726951        2.17299412230718
H           -4.47700868530242       -5.49428190061456        0.94649836109441
H           -3.16348574752590       -4.51528132908342        1.65062218730274
H           -3.45661594178499       -2.31689142670828        2.43424919594574
H           -3.14944101283820        0.07988109377642        2.58155004818830
H           -3.52364841654312        2.22439884868353       -1.69466190890051
H           -2.10465649094193        3.11095734565326       -1.17561469397411
H           -2.15642142607405        0.10251024008336       -1.72019565968316
H           -1.66754321476947        1.33578143742207       -2.89647959964830
H           -0.88199612088654        2.49684849355277        0.65857401312840
H            0.28492085309719        1.97765331995346       -1.51152592485994
H            1.83909720553928       -0.25899425803140        0.67665816447884
H            1.92774299912216        1.29633885394577       -0.16031983019959
H            2.41357592022157        0.12016315468357       -2.30157911868873
H            2.38768704469474       -1.43459810179497       -1.45535996809641
H            4.16042625287889        1.82113071979089       -1.71755035818201
H            6.45664854063054        2.18820620947086       -0.99333548659533
H            8.17315068697066        2.38405472325476        0.62354135600006
H            8.78965728866528        1.75605720287241       -0.93258582777390
H            9.64059604772230        1.37602907282917        0.58461129413758
H            7.05300823036751       -3.74661365975546        1.52394367000463
H            5.39097815101155       -3.13395721166843        1.69851499843284
H            5.97799421927675       -3.69781201756259        0.10563351294839
H            4.23424266146283       -2.11859874773171       -0.08964120035078
H           -0.67466633121660       -1.64595067909812       -1.26253895728472
H           -1.28313570785719       -0.94365610776809        0.25208349998456
H            0.28324976935000       -1.76517920584070        0.21821692175491
H           -4.96289892372610        2.37568623656903        0.12153808454915
H           -3.70391594015910        2.24010222904655        2.90872210835020
H           -5.43854486448414        2.03305430022926        2.63195456383659
H           -4.65555788451242        3.55812902611111        2.21802232193461
H           -2.68289711110964        5.21493669445991        0.98378022894698
H           -2.89086287015942        6.06305634586360       -0.65248273301266
H           -4.18125278650075        6.24518456979326        0.65641187404951
H           -0.77335496655882        1.85391926082286        2.86823369484131

          :  Hamiltonian                  GFN2-xTB          :
         :: total energy             -99.284797101504 Eh    ::
         :: gradient norm              0.003338764481 Eh/a0 ::
         :: HOMO-LUMO gap              0.216185855150 eV    ::
         :: SCC energy              -100.660291200267 Eh    ::
         :: -> dispersion             -0.073088756509 Eh    ::
         :: repulsion energy           1.374014095045 Eh    ::

    * Orbital Energies and Occupations

         #    Occupation            Energy/Eh            Energy/eV
      -------------------------------------------------------------
         1        2.0000           -0.8167114             -22.2238
       ...           ...                  ...                  ...
        78        1.9994           -0.5382062             -14.6453
        79        1.9993           -0.5355551             -14.5732
        80        1.9989           -0.5281922             -14.3728
        81        1.9985           -0.5239529             -14.2575
        82        1.9984           -0.5227479             -14.2247
        83        1.9975           -0.5153040             -14.0221
        84        1.9964           -0.5095725             -13.8662
        85        1.9956           -0.5062816             -13.7766
        86        1.9813           -0.4834650             -13.1558
        87        1.9730           -0.4775665             -12.9952
        88        1.9654           -0.4735486             -12.8859
        89        1.8630           -0.4509277             -12.2704
        90        0.9946           -0.4094292             -11.1411 (HOMO)
        91        0.7492           -0.4014845             -10.9249 (LUMO)
        92        0.4655           -0.3907132             -10.6318
        93        0.0176           -0.3347683              -9.1095
        94        0.0049           -0.3145506              -8.5594
        95        0.0031           -0.3071245              -8.3573
        96        0.0027           -0.3050359              -8.3005
        97        0.0000           -0.2381546              -6.4805
        98        0.0000           -0.1823134              -4.9610
        99                         -0.1409297              -3.8349
       100                         -0.1294259              -3.5219
       101                         -0.0746433              -2.0311
       ...                                ...                  ...
       171                          0.5814155              15.8211
      -------------------------------------------------------------
                  HL-Gap            0.0079447 Eh            0.2162 eV

     #   Z          covCN         q      C6AA      α(0)
     1   7 N        1.775    -0.320    29.106     7.989
     2   6 C        2.819     0.083    26.132     8.376
     3   6 C        3.899     0.008    20.391     6.419
     4   6 C        3.907     0.029    20.034     6.362
     5   6 C        2.909    -0.092    30.301     9.026
     6   6 C        2.853     0.128    25.192     8.226
     7   8 O        1.706    -0.240    17.985     5.726
     8   6 C        3.644     0.028    20.443     6.499
     9   6 C        2.862     0.127    25.216     8.231
    10   8 O        1.706    -0.214    17.549     5.656
    11   6 C        3.645     0.023    20.528     6.512
    12   6 C        2.905    -0.071    29.765     8.946
    13   6 C        2.909    -0.050    29.233     8.866
    14   6 C        3.807    -0.065    21.742     6.638
    15   6 C        3.803    -0.068    21.802     6.648
    16   6 C        2.846    -0.001    28.053     8.680
    17   7 N        2.729     0.014    21.015     6.809
    18   6 C        3.757    -0.017    20.930     6.523
    19   6 C        3.807    -0.070    21.832     6.651
    20   6 C        2.969    -0.001    28.054     8.688
    21   6 C        2.922    -0.050    29.240     8.868
    22   6 C        2.914    -0.068    29.698     8.936
    23   6 C        2.865     0.132    25.103     8.213
    24   8 O        1.706    -0.225    17.730     5.685
    25   6 C        3.645     0.026    20.472     6.503
    26   6 C        2.863     0.132    25.107     8.213
    27   8 O        1.706    -0.227    17.770     5.691
    28   6 C        3.645     0.028    20.440     6.498
    29   6 C        2.920    -0.080    29.992     8.981
    30   6 C        3.699    -0.069    21.991     6.707
    31   6 C        3.858    -0.003    20.592     6.454
    32   6 C        3.752    -0.121    22.875     6.820
    33   6 C        2.780    -0.152    31.888     9.249
    34   1 H        0.926     0.050     2.319     2.381
    35   1 H        0.924     0.052     2.295     2.369
    36   1 H        0.925     0.081     1.971     2.195
    37   1 H        0.924     0.043     2.413     2.429
    38   1 H        0.924     0.061     2.190     2.314
    39   1 H        0.925     0.084     1.936     2.176
    40   1 H        0.924     0.053     2.282     2.363
    41   1 H        0.926     0.060     2.204     2.322
    42   1 H        0.926     0.092     1.860     2.133
    43   1 H        0.925     0.057     2.234     2.338
    44   1 H        0.924     0.059     2.206     2.323
    45   1 H        0.925     0.063     2.168     2.303
    46   1 H        0.924     0.074     2.047     2.237
    47   1 H        0.923     0.004     2.993     2.705
    48   1 H        0.926     0.065     2.139     2.287
    49   1 H        0.924     0.068     2.110     2.272
    50   1 H        0.924     0.067     2.116     2.275
    51   1 H        0.924     0.055     2.260     2.351
    52   1 H        0.924     0.054     2.274     2.358
    53   1 H        0.926     0.043     2.415     2.430
    54   1 H        0.926     0.057     2.237     2.339
    55   1 H        0.924     0.052     2.289     2.366
    56   1 H        0.924     0.055     2.264     2.353
    57   1 H        0.925     0.081     1.970     2.195
    58   1 H        0.925     0.080     1.974     2.197
    59   1 H        0.924     0.048     2.351     2.398
    60   1 H        0.924     0.051     2.303     2.373
    61   1 H        0.926     0.046     2.364     2.404
    62   1 H        0.924     0.075     2.033     2.230
    63   1 H        0.924     0.078     1.997     2.210
    64   1 H        0.925     0.079     1.991     2.206
    65   1 H        0.925     0.054     2.272     2.357
    66   1 H        0.925     0.078     1.997     2.210
    67   1 H        0.925     0.061     2.183     2.311
    68   1 H        0.925     0.061     2.193     2.316
    69   1 H        0.927     0.047     2.354     2.399
    70   1 H        0.927     0.052     2.291     2.367
    71   1 H        0.927     0.058     2.219     2.329
    72   1 H        0.860     0.148     1.418     1.865

Wiberg/Mayer (AO) data.
largest (>0.10) Wiberg bond orders for each atom

     #   Z sym  total        # sym  WBO       # sym  WBO       # sym  WBO
 ---------------------------------------------------------------------------
     1   7 N    2.956 --     2 C    1.830    72 H    0.949
     2   6 C    3.923 --     1 N    1.830     3 C    1.092    47 H    0.929
     3   6 C    3.839 --     2 C    1.092    14 C    1.001    31 C    0.921
                             4 C    0.700
     4   6 C    3.937 --    13 C    1.137     5 C    1.113    31 C    0.853
                             3 C    0.700
     5   6 C    3.822 --     6 C    1.519     4 C    1.113    34 H    0.958
     6   6 C    3.930 --     5 C    1.519     9 C    1.169     7 O    1.086
     7   8 O    2.253 --     6 C    1.086     8 C    0.979
     8   6 C    3.935 --     7 O    0.979    36 H    0.977    37 H    0.975
                            35 H    0.974
     9   6 C    3.728 --    12 C    1.304     6 C    1.169    10 O    1.126
    10   8 O    2.243 --     9 C    1.126    11 C    0.973
    11   6 C    3.928 --    39 H    0.977    10 O    0.973    40 H    0.973
                            38 H    0.973
    12   6 C    3.977 --    13 C    1.547     9 C    1.304    41 H    0.961
    13   6 C    3.771 --    12 C    1.547     4 C    1.137    42 H    0.951
    14   6 C    3.961 --     3 C    1.001    43 H    0.969    44 H    0.965
                            15 C    0.962
    15   6 C    3.987 --    16 C    1.061    45 H    0.964    14 C    0.962
                            46 H    0.944
    16   6 C    3.541 --    17 N    1.397    15 C    1.061    48 H    0.959
    17   7 N    3.458 --    16 C    1.397    30 C    0.999    18 C    0.989
    18   6 C    3.956 --    17 N    0.989    50 H    0.967    19 C    0.966
                            49 H    0.965
    19   6 C    3.975 --    20 C    1.008    52 H    0.973    51 H    0.970
                            18 C    0.966
    20   6 C    3.949 --    21 C    1.411    29 C    1.380    19 C    1.008
    21   6 C    3.953 --    22 C    1.416    20 C    1.411    53 H    0.968
    22   6 C    3.962 --    21 C    1.416    23 C    1.385    54 H    0.963
    23   6 C    3.899 --    22 C    1.385    26 C    1.224    24 O    1.106
    24   8 O    2.255 --    23 C    1.106    25 C    0.977
    25   6 C    3.930 --    57 H    0.977    24 O    0.977    55 H    0.973
                            56 H    0.973
    26   6 C    3.903 --    29 C    1.396    23 C    1.224    27 O    1.100
    27   8 O    2.254 --    26 C    1.100    28 C    0.979
    28   6 C    3.933 --    27 O    0.979    58 H    0.977    59 H    0.974
                            60 H    0.974
    29   6 C    3.961 --    26 C    1.396    20 C    1.380    61 H    0.962
    30   6 C    3.959 --    17 N    0.999    64 H    0.978    62 H    0.966
                            63 H    0.963
    31   6 C    3.863 --    32 C    1.025    65 H    0.961     3 C    0.921
                             4 C    0.853
    32   6 C    3.979 --    31 C    1.025    68 H    0.974    67 H    0.973
                            66 H    0.967
    33   6 C    2.985 --    70 H    0.995    69 H    0.995    71 H    0.994
    34   1 H    0.996 --     5 C    0.958
    35   1 H    0.996 --     8 C    0.974
    36   1 H    0.993 --     8 C    0.977
    37   1 H    0.997 --     8 C    0.975
    38   1 H    0.990 --    11 C    0.973
    39   1 H    0.992 --    11 C    0.977
    40   1 H    0.991 --    11 C    0.973
    41   1 H    0.995 --    12 C    0.961
    42   1 H    0.991 --    13 C    0.951
    43   1 H    0.995 --    14 C    0.969
    44   1 H    0.990 --    14 C    0.965
    45   1 H    0.996 --    15 C    0.964
    46   1 H    0.976 --    15 C    0.944
    47   1 H    0.988 --     2 C    0.929
    48   1 H    0.996 --    16 C    0.959
    49   1 H    0.991 --    18 C    0.965
    50   1 H    0.993 --    18 C    0.967
    51   1 H    0.995 --    19 C    0.970
    52   1 H    0.996 --    19 C    0.973
    53   1 H    0.998 --    21 C    0.968
    54   1 H    0.995 --    22 C    0.963
    55   1 H    0.993 --    25 C    0.973
    56   1 H    0.992 --    25 C    0.973
    57   1 H    0.993 --    25 C    0.977
    58   1 H    0.993 --    28 C    0.977
    59   1 H    0.994 --    28 C    0.974
    60   1 H    0.993 --    28 C    0.974
    61   1 H    0.997 --    29 C    0.962
    62   1 H    0.985 --    30 C    0.966
    63   1 H    0.985 --    30 C    0.963
    64   1 H    0.994 --    30 C    0.978
    65   1 H    0.995 --    31 C    0.961
    66   1 H    0.993 --    32 C    0.967
    67   1 H    0.992 --    32 C    0.973
    68   1 H    0.990 --    32 C    0.974
    69   1 H    0.997 --    33 C    0.995
    70   1 H    0.997 --    33 C    0.995
    71   1 H    0.996 --    33 C    0.994
    72   1 H    0.975 --     1 N    0.949
 ---------------------------------------------------------------------------

molecular dipole:
                 x           y           z       tot (Debye)
 q only:       -0.478      -0.182      -0.457
   full:       -0.314       0.228      -0.749       2.143

           -------------------------------------------------
          | TOTAL ENERGY              -99.284797101504 Eh   |
          | GRADIENT NORM               0.003338764481 Eh/α |
          | HOMO-LUMO GAP               0.216185855150 eV   |
           -------------------------------------------------

 * finished run on 2024/04/06 at 11:14:48.046
