   * xtb version 6.6.1 (8d0f1dd) compiled by 'conda@1efc2f54142f' on 2023-08-01
          program call               : xtb xtbopt.xyz --opt crude --input .xc2 --gfn2

   ID    Z sym.   atoms
    1    6 C      1, 3, 5-7, 10, 11, 14
    2    7 N      2, 4, 9, 13
    3    8 O      8, 12
    4    1 H      15-25

          :  Hamiltonian                  GFN2-xTB          :
 * total energy  :   -42.1095304 Eh     change       -0.1996625E-11 Eh
   *** GEOMETRY OPTIMIZATION CONVERGED AFTER 1 ITERATIONS ***

 final structure:
================
25
 xtb: 6.6.1 (8d0f1dd)
C            3.43285993129110        2.11815740480438        0.00769236915901
N            2.81715462571583        0.81647718984368        0.01162005555869
C            3.43169478131399       -0.35935561375551        0.02083769678647
N            2.53243103343035       -1.35636596188317        0.02086599635209
C            1.27579276892741       -0.80218189582990        0.01128942054712
C            1.47212722668173        0.58665080993498        0.00549015458771
C            0.32802594787921        1.47711004833544       -0.00099432197066
O            0.38574326113194        2.68992532194775       -0.00626394956782
N           -0.85707855480274        0.76728991923097       -0.00023704952297
C           -2.09632166248984        1.52134194703574        0.00050583381115
C           -1.00119421207956       -0.64597975466898        0.00001678141410
O           -2.11221015175835       -1.12451722710043       -0.00606456079770
N            0.12212861284286       -1.41463783352492        0.00770813621986
C           -4.33148615108321       -4.02447171860949       -0.03017241868284
H            4.03990724802320        2.25319961309522        0.90289910128252
H            4.06880261707543        2.23434243624552       -0.87003281914592
H            2.64553669796171        2.87193935988271       -0.01205020076316
H            4.49672229152256       -0.49587537770174        0.02763660869613
H           -1.84924027379487        2.58079710998353       -0.00380044294734
H           -2.68525081735466        1.26506995897689       -0.88036080054171
H           -2.67956773325144        1.27123026898902        0.88719381476157
H           -4.66124157970875       -4.45792069653246        0.89386562627794
H           -4.64533431944655       -4.45177496340938       -0.96160331568686
H           -3.70096650762566       -3.15525814598323       -0.02228183400777
H            2.73139643305696       -2.34695365704498        0.02741173608645

          :  Hamiltonian                  GFN2-xTB          :
         :: total energy             -42.109530421963 Eh    ::
         :: gradient norm              0.004562071741 Eh/a0 ::
         :: HOMO-LUMO gap              0.527662630589 eV    ::
         :: SCC energy               -42.637554764489 Eh    ::
         :: -> dispersion             -0.020258741882 Eh    ::
         :: repulsion energy           0.528028096429 Eh    ::

    * Orbital Energies and Occupations

         #    Occupation            Energy/Eh            Energy/eV
      -------------------------------------------------------------
         1        2.0000           -0.8970523             -24.4100
       ...           ...                  ...                  ...
        25        2.0000           -0.6458113             -17.5734
        26        2.0000           -0.6294768             -17.1289
        27        2.0000           -0.6272430             -17.0681
        28        2.0000           -0.6261208             -17.0376
        29        2.0000           -0.6252409             -17.0137
        30        2.0000           -0.6111244             -16.6295
        31        2.0000           -0.6030519             -16.4099
        32        1.9998           -0.5900946             -16.0573
        33        1.9930           -0.5621761             -15.2976
        34        1.9464           -0.5458928             -14.8545
        35        1.9323           -0.5439898             -14.8027
        36        1.8489           -0.5372780             -14.6201
        37        1.6706           -0.5303059             -14.4304 (HOMO)
        38        0.6091           -0.5109147             -13.9027 (LUMO)
        39        0.0000           -0.4203394             -11.4380
        40                         -0.3783973             -10.2967
        41                         -0.3459615              -9.4141
        42                         -0.2591962              -7.0531
        43                         -0.1781221              -4.8469
        44                         -0.1570070              -4.2724
        45                         -0.1151266              -3.1328
        46                         -0.0672953              -1.8312
        47                         -0.0227738              -0.6197
        48                         -0.0197910              -0.5385
       ...                                ...                  ...
        67                          0.5527603              15.0414
      -------------------------------------------------------------
                  HL-Gap            0.0193912 Eh            0.5277 eV

     #   Z          covCN         q      C6AA      α(0)
     1   6 C        3.692    -0.093    22.463     6.782
     2   7 N        2.828     0.087    19.729     6.597
     3   6 C        3.064     0.065    26.475     8.437
     4   7 N        2.795    -0.055    22.297     7.013
     5   6 C        3.066     0.149    24.714     8.152
     6   6 C        3.134    -0.019    28.270     8.704
     7   6 C        2.766     0.277    22.318     7.737
     8   8 O        0.858    -0.378    21.238     6.179
     9   7 N        2.747    -0.093    23.052     7.131
    10   6 C        3.704    -0.054    21.696     6.659
    11   6 C        2.755     0.339    21.237     7.546
    12   8 O        0.860    -0.365    20.998     6.144
    13   7 N        1.832    -0.256    27.515     7.773
    14   6 C        2.779    -0.058    29.430     8.885
    15   1 H        0.925     0.106     1.732     2.058
    16   1 H        0.925     0.106     1.734     2.059
    17   1 H        0.925     0.136     1.487     1.907
    18   1 H        0.926     0.124     1.579     1.965
    19   1 H        0.925     0.108     1.718     2.050
    20   1 H        0.925     0.095     1.833     2.117
    21   1 H        0.924     0.094     1.837     2.119
    22   1 H        0.926     0.143     1.438     1.875
    23   1 H        0.926     0.143     1.438     1.875
    24   1 H        0.926     0.161     1.319     1.796
    25   1 H        0.860     0.237     0.936     1.516

Wiberg/Mayer (AO) data.
largest (>0.10) Wiberg bond orders for each atom

     #   Z sym  total        # sym  WBO       # sym  WBO       # sym  WBO
 ---------------------------------------------------------------------------
     1   6 C    3.914 --     2 N    0.982    17 H    0.961    16 H    0.960
                            15 H    0.960
     2   7 N    3.717 --     3 C    1.391     6 C    1.191     1 C    0.982
     3   6 C    3.878 --     2 N    1.391     4 N    1.322    18 H    0.951
     4   7 N    3.595 --     3 C    1.322     5 C    1.147    25 H    0.916
     5   6 C    3.951 --    13 N    1.392     6 C    1.256     4 N    1.147
     6   6 C    3.800 --     5 C    1.256     2 N    1.191     7 C    1.070
     7   6 C    3.959 --     8 O    1.647     9 N    1.147     6 C    1.070
     8   8 O    1.964 --     7 C    1.647     9 N    0.150
     9   7 N    3.498 --     7 C    1.147    11 C    1.038    10 C    0.983
                             8 O    0.150    12 O    0.105
    10   6 C    3.909 --     9 N    0.983    19 H    0.966    20 H    0.959
                            21 H    0.959
    11   6 C    3.944 --    12 O    1.656    13 N    1.165     9 N    1.038
    12   8 O    1.921 --    11 C    1.656     9 N    0.105
    13   7 N    2.817 --     5 C    1.392    11 C    1.165
    14   6 C    2.928 --    23 H    0.978    22 H    0.978    24 H    0.970
    15   1 H    0.987 --     1 C    0.960
    16   1 H    0.987 --     1 C    0.960
    17   1 H    0.981 --     1 C    0.961
    18   1 H    0.983 --     3 C    0.951
    19   1 H    0.984 --    10 C    0.966
    20   1 H    0.978 --    10 C    0.959
    21   1 H    0.978 --    10 C    0.959
    22   1 H    0.979 --    14 C    0.978
    23   1 H    0.979 --    14 C    0.978
    24   1 H    0.974 --    14 C    0.970
    25   1 H    0.943 --     4 N    0.916
 ---------------------------------------------------------------------------

molecular dipole:
                 x           y           z       tot (Debye)
 q only:        1.424      -2.257       0.009
   full:        1.890      -2.335       0.013       7.636

           -------------------------------------------------
          | TOTAL ENERGY              -42.109530421963 Eh   |
          | GRADIENT NORM               0.004562071741 Eh/α |
          | HOMO-LUMO GAP               0.527662630589 eV   |
           -------------------------------------------------

 * finished run on 2024/06/05 at 19:58:05.786
