   * xtb version 6.6.1 (8d0f1dd) compiled by 'conda@1efc2f54142f' on 2023-08-01
          program call               : xtb struc.xyz --opt loose --input .xc1 --gfn2

   ID    Z sym.   atoms
    1    6 C      1, 3, 5-7, 10, 11, 14
    2    7 N      2, 4, 9, 13
    3    8 O      8, 12
    4    1 H      15-25
constraining bond 6 15 to    5.1400000 Å, actual value:    3.1327550 Å

          :  Hamiltonian                  GFN2-xTB          :
 * total energy  :   -27.8599244 Eh     change       -0.6650680E-10 Eh
 * total energy  :   -35.0398533 Eh     change       -0.7179929E+01 Eh
 * total energy  :   -39.3986286 Eh     change       -0.4358775E+01 Eh
 * total energy  :   -41.3844401 Eh     change       -0.1985811E+01 Eh
 * total energy  :   -41.8372764 Eh     change       -0.4528363E+00 Eh
 * total energy  :   -41.8813685 Eh     change       -0.4409210E-01 Eh
 * total energy  :   -41.8920014 Eh     change       -0.1063291E-01 Eh
 * total energy  :   -41.9195380 Eh     change       -0.2753659E-01 Eh
 * total energy  :   -41.9387460 Eh     change       -0.1920802E-01 Eh
 * total energy  :   -41.9481509 Eh     change       -0.9404869E-02 Eh
 * total energy  :   -42.0919609 Eh     change       -0.1979151E-01 Eh
 * total energy  :   -42.1030828 Eh     change       -0.1112191E-01 Eh
 * total energy  :   -42.1061271 Eh     change       -0.3044299E-02 Eh
 * total energy  :   -42.1072813 Eh     change       -0.1154148E-02 Eh
 * total energy  :   -42.1073596 Eh     change       -0.7834056E-04 Eh
 * total energy  :   -42.1078217 Eh     change       -0.4620824E-03 Eh
 * total energy  :   -42.1078890 Eh     change       -0.6727119E-04 Eh
 * total energy  :   -42.1079606 Eh     change       -0.7168740E-04 Eh
 * total energy  :   -42.1079779 Eh     change       -0.1721019E-04 Eh
   *** GEOMETRY OPTIMIZATION CONVERGED AFTER 30 ITERATIONS ***

 final structure:
================
25
 xtb: 6.6.1 (8d0f1dd)
C            3.06445222476004        1.07241151902767       -0.18420954850931
N            2.20417791890779        0.06339591052333       -0.12601666001219
C            2.47229483748737       -1.26226842273891       -0.12830390162809
N            1.31088683730914       -1.97039690458672       -0.07830664224429
C            0.27687103476067       -1.08789749898566       -0.04357304903183
C            0.81706410335201        0.18678370051369       -0.06884512548632
C           -0.00995949383970        1.37131261895031       -0.05939962724283
O            0.38700470720792        2.51151432452693       -0.08242625863721
N           -1.36613224992147        1.03918867578273       -0.01936307315521
C           -2.32318725754664        2.13597748858836       -0.01735508416880
C           -1.93004720537812       -0.22281245328934        0.00466445514219
O           -3.11579258356444       -0.39693705447559        0.03089078426703
N           -1.04422620257158       -1.32385978896126       -0.00278995829583
C           -1.59315060334947       -2.66439851120180        0.02151949639301
H            5.44342777549132        1.86367826566298        1.41493325560532
H            4.11931952383122        0.87087535995591       -0.25303231170357
H            2.67920818036798        2.07613949447128       -0.17361700879055
H            3.44879184710385       -1.69763834284560       -0.17008591647949
H           -1.76697483988623        3.07035685632515       -0.00014585705603
H           -2.94821753448625        2.08534957447102       -0.90956953991956
H           -2.96973534136696        2.06129697021367        0.85729252875820
H           -1.27597657230829       -3.19266772226707        0.92188965054266
H           -1.28880365231479       -3.21958273166634       -0.86636619638253
H           -2.67948125554340       -2.57392601325700        0.02900546271257
H            1.24861731559798       -2.97765677313769       -0.06561825677739

          :  Hamiltonian                  GFN2-xTB          :
         :: total energy             -42.107977859027 Eh    ::
         :: gradient norm              0.002732526303 Eh/a0 ::
         :: HOMO-LUMO gap              0.325727891664 eV    ::
         :: SCC energy               -42.631087408008 Eh    ::
         :: -> dispersion             -0.022752415831 Eh    ::
         :: repulsion energy           0.523020951465 Eh    ::

    * Orbital Energies and Occupations

         #    Occupation            Energy/Eh            Energy/eV
      -------------------------------------------------------------
         1        2.0000           -0.9119785             -24.8162
       ...           ...                  ...                  ...
        25        1.9999           -0.6687601             -18.1979
        26        1.9999           -0.6687350             -18.1972
        27        1.9999           -0.6594613             -17.9449
        28        1.9995           -0.6376041             -17.3501
        29        1.9994           -0.6332395             -17.2313
        30        1.9991           -0.6276479             -17.0792
        31        1.9986           -0.6201128             -16.8741
        32        1.9952           -0.6010078             -16.3543
        33        1.9844           -0.5822939             -15.8450
        34        1.9548           -0.5652223             -15.3805
        35        1.9488           -0.5632018             -15.3255
        36        1.9432           -0.5615180             -15.2797
        37        1.2698           -0.5143495             -13.9962 (HOMO)
        38        0.8990           -0.5023793             -13.6704 (LUMO)
        39        0.0053           -0.4118061             -11.2058
        40        0.0030           -0.4026229             -10.9559
        41        0.0004           -0.3693721             -10.0511
        42        0.0000           -0.2876010              -7.8260
        43                         -0.2079420              -5.6584
        44                         -0.1869219              -5.0864
        45                         -0.1451228              -3.9490
        46                         -0.1163989              -3.1674
        47                         -0.0837266              -2.2783
        48                         -0.0505525              -1.3756
       ...                                ...                  ...
        67                          0.5538522              15.0711
      -------------------------------------------------------------
                  HL-Gap            0.0119703 Eh            0.3257 eV

     #   Z          covCN         q      C6AA      α(0)
     1   6 C        2.790    -0.069    29.690     8.925
     2   7 N        2.809     0.131    19.013     6.476
     3   6 C        3.039     0.026    27.385     8.583
     4   7 N        2.780    -0.058    22.362     7.023
     5   6 C        3.022     0.120    25.347     8.258
     6   6 C        3.111    -0.038    28.786     8.790
     7   6 C        2.764     0.275    22.353     7.743
     8   8 O        0.858    -0.356    20.812     6.116
     9   7 N        2.746    -0.080    22.800     7.092
    10   6 C        3.710    -0.062    21.842     6.679
    11   6 C        2.728     0.318    21.593     7.607
    12   8 O        0.860    -0.349    20.684     6.098
    13   7 N        2.738    -0.053    22.257     7.007
    14   6 C        3.696    -0.073    22.076     6.721
    15   1 H        0.000     0.041     6.054     4.499
    16   1 H        0.926     0.110     1.697     2.037
    17   1 H        0.926     0.141     1.455     1.886
    18   1 H        0.927     0.122     1.600     1.978
    19   1 H        0.925     0.117     1.640     2.003
    20   1 H        0.924     0.103     1.756     2.072
    21   1 H        0.924     0.104     1.745     2.066
    22   1 H        0.924     0.086     1.916     2.164
    23   1 H        0.924     0.085     1.925     2.170
    24   1 H        0.925     0.129     1.540     1.941
    25   1 H        0.860     0.228     0.972     1.544

Wiberg/Mayer (AO) data.
largest (>0.10) Wiberg bond orders for each atom

     #   Z sym  total        # sym  WBO       # sym  WBO       # sym  WBO
 ---------------------------------------------------------------------------
     1   6 C    3.402 --     2 N    1.333    16 H    0.959    17 H    0.955
     2   7 N    3.765 --     1 C    1.333     3 C    1.247     6 C    1.087
     3   6 C    3.642 --     2 N    1.247     4 N    1.241    18 H    0.955
     4   7 N    3.527 --     3 C    1.241     5 C    1.194    25 H    0.919
     5   6 C    3.939 --     6 C    1.350    13 N    1.218     4 N    1.194
     6   6 C    3.844 --     5 C    1.350     2 N    1.087     7 C    1.084
     7   6 C    3.959 --     8 O    1.687     9 N    1.093     6 C    1.084
     8   8 O    2.020 --     7 C    1.687     9 N    0.138
     9   7 N    3.531 --    11 C    1.126     7 C    1.093    10 C    0.972
                             8 O    0.138    12 O    0.133
    10   6 C    3.897 --     9 N    0.972    19 H    0.965    21 H    0.958
                            20 H    0.957
    11   6 C    3.958 --    12 O    1.706     9 N    1.126    13 N    1.035
    12   8 O    2.046 --    11 C    1.706     9 N    0.133    13 N    0.118
    13   7 N    3.531 --     5 C    1.218    11 C    1.035    14 C    0.976
                            12 O    0.118
    14   6 C    3.919 --    13 N    0.976    23 H    0.968    22 H    0.968
                            24 H    0.963
    15   1 H    0.027
    16   1 H    0.987 --     1 C    0.959
    17   1 H    0.979 --     1 C    0.955
    18   1 H    0.984 --     3 C    0.955
    19   1 H    0.983 --    10 C    0.965
    20   1 H    0.976 --    10 C    0.957
    21   1 H    0.977 --    10 C    0.958
    22   1 H    0.986 --    14 C    0.968
    23   1 H    0.986 --    14 C    0.968
    24   1 H    0.982 --    14 C    0.963
    25   1 H    0.947 --     4 N    0.919
 ---------------------------------------------------------------------------

molecular dipole:
                 x           y           z       tot (Debye)
 q only:        2.270      -1.960      -0.047
   full:        2.558      -2.426      -0.050       8.962

           -------------------------------------------------
          | TOTAL ENERGY              -42.107977859027 Eh   |
          | GRADIENT NORM               0.002732526303 Eh/α |
          | HOMO-LUMO GAP               0.325727891664 eV   |
           -------------------------------------------------

 * finished run on 2024/06/05 at 19:59:13.758
