   * xtb version 6.6.1 (8d0f1dd) compiled by 'conda@1efc2f54142f' on 2023-08-01
          program call               : xtb struc.xyz --opt loose --input .xc1 --gfn2

   ID    Z sym.   atoms
    1    6 C      1, 3, 5-7, 10, 11, 14
    2    7 N      2, 4, 9, 13
    3    8 O      8, 12
    4    1 H      15-25
constraining bond 16 17 to    3.2800000 Å, actual value:    1.7840536 Å

          :  Hamiltonian                  GFN2-xTB          :
 * total energy  :   -38.2520954 Eh     change       -0.6650680E-10 Eh
 * total energy  :   -40.3248628 Eh     change       -0.2072767E+01 Eh
 * total energy  :   -41.6531926 Eh     change       -0.1328330E+01 Eh
 * total energy  :   -42.0468194 Eh     change       -0.3936268E+00 Eh
 * total energy  :   -42.0763892 Eh     change       -0.2956984E-01 Eh
 * total energy  :   -42.0771022 Eh     change       -0.7129593E-03 Eh
 * total energy  :   -42.0794443 Eh     change       -0.2342096E-02 Eh
 * total energy  :   -42.0815646 Eh     change       -0.2120328E-02 Eh
 * total energy  :   -42.0881386 Eh     change       -0.6573999E-02 Eh
 * total energy  :   -42.0961696 Eh     change       -0.8030953E-02 Eh
 * total energy  :   -42.1900670 Eh     change       -0.1539443E-02 Eh
 * total energy  :   -42.1909489 Eh     change       -0.8819273E-03 Eh
 * total energy  :   -42.1913535 Eh     change       -0.4045248E-03 Eh
 * total energy  :   -42.1915777 Eh     change       -0.2242592E-03 Eh
 * total energy  :   -42.1917344 Eh     change       -0.1566837E-03 Eh
 * total energy  :   -42.1919383 Eh     change       -0.2039169E-03 Eh
 * total energy  :   -42.1920132 Eh     change       -0.7486488E-04 Eh
 * total energy  :   -42.1920782 Eh     change       -0.6505301E-04 Eh
 * total energy  :   -42.1921188 Eh     change       -0.4051043E-04 Eh
   *** GEOMETRY OPTIMIZATION CONVERGED AFTER 33 ITERATIONS ***

 final structure:
================
25
 xtb: 6.6.1 (8d0f1dd)
C            3.28893985189792        0.92777843154076        0.08940717530254
N            2.37689859648916       -0.04126969244345        0.02375266412950
C            2.58813135506239       -1.36836563961487       -0.11767184456792
N            1.38840999540296       -2.03837387833972       -0.13180972968643
C            0.39735977838543       -1.14361042654550       -0.00076681000820
C            0.98938042430287        0.13133871269830        0.07159508845831
C            0.18799378365519        1.26547343579944        0.02759575020068
O            0.63516791468283        2.51066932746064       -0.07228754379173
N           -1.15859391858998        1.06449195940771        0.04711419975754
C           -2.07304865641603        2.19620754977922        0.01543915925667
C           -1.78194460356801       -0.19043812706619        0.07076684851357
O           -2.97435665955237       -0.29177835107412        0.10637525196767
N           -0.94549178563218       -1.31241426711064        0.03136375340259
C           -1.54195635947542       -2.63390326227821        0.01145411742537
H            3.06026072924836        1.88480093633425        0.51267270376860
H            4.31324166232188        0.67619699427055       -0.06501524524916
H            1.59956351544031        2.51701907892724       -0.22331768169975
H            3.54630151363248       -1.83075931305280       -0.20187710123846
H           -1.50254320105777        3.11889449924778        0.02351600432571
H           -2.68897061043193        2.14139896724317       -0.88197955547397
H           -2.73203915416645        2.15151607406383        0.88191613796791
H           -1.20894118203659       -3.21141966939774        0.87433279167516
H           -1.28300365781710       -3.15586141626594       -0.91027161926575
H           -2.62263009405162       -2.51001113894082        0.05967177722226
H            1.30230227637372       -3.03934224304300       -0.21080467449272

          :  Hamiltonian                  GFN2-xTB          :
         :: total energy             -42.192118750292 Eh    ::
         :: gradient norm              0.002383613971 Eh/a0 ::
         :: HOMO-LUMO gap              1.538487807512 eV    ::
         :: SCC energy               -42.718208803684 Eh    ::
         :: -> dispersion             -0.023074170074 Eh    ::
         :: repulsion energy           0.525952671094 Eh    ::

    * Orbital Energies and Occupations

         #    Occupation            Energy/Eh            Energy/eV
      -------------------------------------------------------------
         1        2.0000           -0.9014994             -24.5310
       ...           ...                  ...                  ...
        25        2.0000           -0.6701135             -18.2347
        26        2.0000           -0.6685127             -18.1912
        27        2.0000           -0.6576259             -17.8949
        28        2.0000           -0.6465924             -17.5947
        29        2.0000           -0.6392825             -17.3958
        30        1.9999           -0.6219089             -16.9230
        31        1.9999           -0.6159581             -16.7611
        32        1.9999           -0.6120310             -16.6542
        33        1.9998           -0.6089111             -16.5693
        34        1.9992           -0.5844262             -15.9030
        35        1.9987           -0.5763532             -15.6834
        36        1.9956           -0.5569991             -15.1567
        37        1.7038           -0.4879655             -13.2782 (HOMO)
        38        0.2786           -0.4314272             -11.7397 (LUMO)
        39        0.0209           -0.3882477             -10.5648
        40        0.0038           -0.3608719              -9.8198
        41        0.0001           -0.2935323              -7.9874
        42        0.0000           -0.2048468              -5.5742
        43                         -0.1717337              -4.6731
        44                         -0.1440326              -3.9193
        45                         -0.1300696              -3.5394
        46                         -0.1091138              -2.9691
        47                         -0.0676062              -1.8397
        48                         -0.0353250              -0.9612
       ...                                ...                  ...
        67                          0.5363902              14.5959
      -------------------------------------------------------------
                  HL-Gap            0.0565384 Eh            1.5385 eV

     #   Z          covCN         q      C6AA      α(0)
     1   6 C        2.789    -0.130    31.298     9.164
     2   7 N        2.795     0.103    19.465     6.553
     3   6 C        3.038    -0.004    28.079     8.691
     4   7 N        2.774    -0.062    22.447     7.037
     5   6 C        3.016     0.105    25.666     8.310
     6   6 C        3.106    -0.037    28.784     8.791
     7   6 C        2.775     0.202    23.711     7.975
     8   8 O        1.659    -0.328    19.502     5.962
     9   7 N        2.746    -0.048    22.166     6.992
    10   6 C        3.706    -0.070    21.987     6.703
    11   6 C        2.727     0.312    21.697     7.626
    12   8 O        0.859    -0.356    20.812     6.116
    13   7 N        2.737    -0.058    22.369     7.024
    14   6 C        3.698    -0.072    22.045     6.716
    15   1 H        0.926     0.071     2.076     2.253
    16   1 H        0.927     0.082     1.957     2.188
    17   1 H        0.804     0.352     0.583     1.199
    18   1 H        0.927     0.105     1.740     2.063
    19   1 H        0.925     0.110     1.700     2.039
    20   1 H        0.925     0.104     1.750     2.069
    21   1 H        0.925     0.108     1.718     2.050
    22   1 H        0.924     0.085     1.933     2.174
    23   1 H        0.924     0.083     1.946     2.181
    24   1 H        0.925     0.125     1.576     1.963
    25   1 H        0.860     0.219     1.014     1.578

Wiberg/Mayer (AO) data.
largest (>0.10) Wiberg bond orders for each atom

     #   Z sym  total        # sym  WBO       # sym  WBO       # sym  WBO
 ---------------------------------------------------------------------------
     1   6 C    3.567 --     2 N    1.305    16 H    0.971    15 H    0.955
                             3 C    0.177
     2   7 N    3.721 --     1 C    1.305     3 C    1.249     6 C    1.071
     3   6 C    3.709 --     2 N    1.249     4 N    1.175    18 H    0.960
                             1 C    0.177
     4   7 N    3.556 --     5 C    1.260     3 C    1.175    25 H    0.924
     5   6 C    3.867 --     4 N    1.260     6 C    1.233    13 N    1.179
     6   6 C    3.906 --     7 C    1.295     5 C    1.233     2 N    1.071
     7   6 C    3.782 --     6 C    1.295     9 N    1.203     8 O    1.159
     8   8 O    2.178 --     7 C    1.159    17 H    0.826
     9   7 N    3.537 --     7 C    1.203    11 C    1.070    10 C    0.969
                            12 O    0.126
    10   6 C    3.916 --    19 H    0.971     9 N    0.969    20 H    0.964
                            21 H    0.963
    11   6 C    3.946 --    12 O    1.715    13 N    1.070     9 N    1.070
    12   8 O    2.068 --    11 C    1.715    13 N    0.135     9 N    0.126
    13   7 N    3.516 --     5 C    1.179    11 C    1.070    14 C    0.974
                            12 O    0.135
    14   6 C    3.926 --    13 N    0.974    22 H    0.970    23 H    0.970
                            24 H    0.965
    15   1 H    0.994 --     1 C    0.955
    16   1 H    0.992 --     1 C    0.971
    17   1 H    0.875 --     8 O    0.826
    18   1 H    0.988 --     3 C    0.960
    19   1 H    0.987 --    10 C    0.971
    20   1 H    0.984 --    10 C    0.964
    21   1 H    0.983 --    10 C    0.963
    22   1 H    0.989 --    14 C    0.970
    23   1 H    0.989 --    14 C    0.970
    24   1 H    0.984 --    14 C    0.965
    25   1 H    0.951 --     4 N    0.924
 ---------------------------------------------------------------------------

molecular dipole:
                 x           y           z       tot (Debye)
 q only:        1.778      -0.781      -0.188
   full:        2.259      -1.070      -0.194       6.373

           -------------------------------------------------
          | TOTAL ENERGY              -42.192118750292 Eh   |
          | GRADIENT NORM               0.002383613971 Eh/α |
          | HOMO-LUMO GAP               1.538487807512 eV   |
           -------------------------------------------------

 * finished run on 2024/06/05 at 19:59:08.314
