   * xtb version 6.6.1 (8d0f1dd) compiled by 'conda@1efc2f54142f' on 2023-08-01
          program call               : xtb xtbopt.xyz --opt crude --input .xc2 --gfn2

   ID    Z sym.   atoms
    1    6 C      1, 3, 5-7, 10, 11, 14
    2    7 N      2, 4, 9, 13
    3    8 O      8, 12
    4    1 H      15-25

          :  Hamiltonian                  GFN2-xTB          :
 * total energy  :   -42.0247203 Eh     change       -0.9876544E-12 Eh
   *** GEOMETRY OPTIMIZATION CONVERGED AFTER 1 ITERATIONS ***

 final structure:
================
25
 xtb: 6.6.1 (8d0f1dd)
C            4.56102383500049        1.38204197299357        0.02561253538220
N            3.30861648014512        0.65586848259601       -0.06415984025452
C            3.33314400600864       -0.70234647486345        0.04085213567246
N            2.26431918789056       -1.41773158376933       -0.05486784542715
C            1.22996114800138       -1.98040865465853        0.16301243420125
C            2.17068897654099        1.30844687412604       -0.21179608609552
C            1.19244276779957        2.07016917323555       -0.35558055147178
O            0.21479663834292        2.72052970136414       -0.49373179156891
N           -2.40881483632351        2.64218196589919        0.82890774190610
C           -3.49217544306850        2.65523810535031        0.22597661007956
C           -2.46968852115566       -1.39988247467950       -0.30116340798636
O           -2.38810808454842       -0.25545824306108       -0.46856332207850
N           -2.32894552419647       -2.57339656142772       -0.17695158380656
C           -2.87837151958315       -3.83833095212715        0.11356191652569
H            4.99979741573910        1.25892795958051        1.01850208416529
H            5.26802082518616        1.01177579538647       -0.71932217526590
H            4.37842087064591        2.43994022907418       -0.15066986094797
H            4.29100432164246       -1.18997801447244        0.13953537087525
H           -1.51859646389382        2.74960057124374        0.34518932281138
H           -3.61742895405527        2.77654740002581       -0.85362648380520
H           -4.40783321217096        2.54145485854656        0.79953737126137
H           -2.42157341962624       -4.22147884539821        1.02956193417890
H           -2.64556182922264       -4.52054889123434       -0.70703444313249
H           -3.96273431720305       -3.78830147111990        0.24308375052493
H            0.48802716604793       -2.50662238106872       -0.38469419792662

          :  Hamiltonian                  GFN2-xTB          :
         :: total energy             -42.024720288961 Eh    ::
         :: gradient norm              0.003242602984 Eh/a0 ::
         :: HOMO-LUMO gap              1.166780332398 eV    ::
         :: SCC energy               -42.709506130820 Eh    ::
         :: -> dispersion             -0.015201819341 Eh    ::
         :: repulsion energy           0.684749910470 Eh    ::

    * Orbital Energies and Occupations

         #    Occupation            Energy/Eh            Energy/eV
      -------------------------------------------------------------
         1        2.0000           -0.8627943             -23.4778
       ...           ...                  ...                  ...
        25        1.9989           -0.6477561             -17.6263
        26        1.9980           -0.6326735             -17.2159
        27        1.9978           -0.6304826             -17.1563
        28        1.9977           -0.6296899             -17.1347
        29        1.9964           -0.6185485             -16.8316
        30        1.9936           -0.6048711             -16.4594
        31        1.9924           -0.6007784             -16.3480
        32        1.9922           -0.6002428             -16.3334
        33        1.9357           -0.5494986             -14.9526
        34        1.9154           -0.5427193             -14.7681
        35        1.8024           -0.5211194             -14.1804
        36        1.7483           -0.5146469             -14.0043
        37        1.6311           -0.5039205             -13.7124 (HOMO)
        38        0.8419           -0.4610421             -12.5456 (LUMO)
        39        0.1097           -0.4009938             -10.9116
        40        0.0299           -0.3691156             -10.0441
        41        0.0172           -0.3558200              -9.6824
        42        0.0034           -0.3170012              -8.6260
        43        0.0012           -0.2932512              -7.9798
        44        0.0007           -0.2792703              -7.5993
        45        0.0002           -0.2434098              -6.6235
        46        0.0000           -0.1517601              -4.1296
        47        0.0000           -0.0819357              -2.2296
        48        0.0000           -0.0706858              -1.9235
       ...           ...                  ...                  ...
        67                          1.2783132              34.7847
      -------------------------------------------------------------
                  HL-Gap            0.0428784 Eh            1.1668 eV

     #   Z          covCN         q      C6AA      α(0)
     1   6 C        3.709    -0.082    22.212     6.736
     2   7 N        2.736     0.102    19.493     6.557
     3   6 C        2.802     0.042    27.039     8.519
     4   7 N        1.829     0.054    20.962     6.784
     5   6 C        1.844    -0.018    31.632     9.086
     6   6 C        1.944    -0.072    33.031     9.281
     7   6 C        1.837     0.217    26.056     8.246
     8   8 O        0.856    -0.261    19.093     5.858
     9   7 N        1.770    -0.168    25.412     7.464
    10   6 C        2.759     0.053    26.786     8.475
    11   6 C        1.770     0.313    24.207     7.954
    12   8 O        0.856    -0.264    19.144     5.866
    13   7 N        1.820    -0.148    24.978     7.405
    14   6 C        3.685    -0.032    21.359     6.617
    15   1 H        0.924     0.097     1.810     2.104
    16   1 H        0.924     0.096     1.821     2.110
    17   1 H        0.925     0.101     1.773     2.082
    18   1 H        0.926     0.106     1.727     2.055
    19   1 H        0.860     0.230     0.963     1.538
    20   1 H        0.924     0.097     1.808     2.103
    21   1 H        0.925     0.112     1.682     2.028
    22   1 H        0.924     0.096     1.819     2.109
    23   1 H        0.924     0.098     1.806     2.101
    24   1 H        0.924     0.088     1.895     2.153
    25   1 H        0.927     0.142     1.448     1.882

Wiberg/Mayer (AO) data.
largest (>0.10) Wiberg bond orders for each atom

     #   Z sym  total        # sym  WBO       # sym  WBO       # sym  WBO
 ---------------------------------------------------------------------------
     1   6 C    3.918 --    17 H    0.974     2 N    0.972    16 H    0.962
                            15 H    0.959
     2   7 N    3.499 --     6 C    1.254     3 C    1.185     1 C    0.972
     3   6 C    3.758 --     4 N    1.369     2 N    1.185    18 H    0.929
                             5 C    0.138
     4   7 N    3.565 --     5 C    2.139     3 C    1.369
     5   6 C    3.298 --     4 N    2.139    25 H    0.925     3 C    0.138
     6   6 C    3.458 --     7 C    1.930     2 N    1.254     8 O    0.174
     7   6 C    3.776 --     6 C    1.930     8 O    1.775
     8   8 O    2.036 --     7 C    1.775     6 C    0.174
     9   7 N    2.927 --    10 C    2.029    19 H    0.873
    10   6 C    3.858 --     9 N    2.029    21 H    0.927    20 H    0.900
    11   6 C    3.928 --    13 N    1.977    12 O    1.883
    12   8 O    2.269 --    11 C    1.883    13 N    0.347
    13   7 N    3.347 --    11 C    1.977    14 C    1.020    12 O    0.347
    14   6 C    3.912 --    13 N    1.020    23 H    0.952    24 H    0.951
                            22 H    0.950
    15   1 H    0.975 --     1 C    0.959
    16   1 H    0.977 --     1 C    0.962
    17   1 H    0.987 --     1 C    0.974
    18   1 H    0.981 --     3 C    0.929
    19   1 H    0.922 --     9 N    0.873
    20   1 H    0.910 --    10 C    0.900
    21   1 H    0.947 --    10 C    0.927
    22   1 H    0.973 --    14 C    0.950
    23   1 H    0.974 --    14 C    0.952
    24   1 H    0.975 --    14 C    0.951
    25   1 H    0.959 --     5 C    0.925
 ---------------------------------------------------------------------------

molecular dipole:
                 x           y           z       tot (Debye)
 q only:        1.305      -1.230       0.171
   full:        1.244      -1.365      -0.196       4.721

           -------------------------------------------------
          | TOTAL ENERGY              -42.024720288961 Eh   |
          | GRADIENT NORM               0.003242602984 Eh/α |
          | HOMO-LUMO GAP               1.166780332398 eV   |
           -------------------------------------------------

 * finished run on 2024/06/05 at 19:58:47.447
