   * xtb version 6.6.1 (8d0f1dd) compiled by 'conda@1efc2f54142f' on 2023-08-01
          program call               : xtb struc.xyz --opt loose --input .xc1 --gfn2

   ID    Z sym.   atoms
    1    6 C      1, 3, 5-7, 10, 11, 14
    2    7 N      2, 4, 9, 13
    3    8 O      8, 12
    4    1 H      15-25
constraining bond 7 15 to    4.7133300 Å, actual value:    3.7773936 Å

          :  Hamiltonian                  GFN2-xTB          :
 * total energy  :   -43.8119434 Eh     change       -0.6650680E-10 Eh
 * total energy  :   -47.1229387 Eh     change       -0.3310995E+01 Eh
 * total energy  :   -52.2968253 Eh     change       -0.5173887E+01 Eh
 * total energy  :   -59.4481383 Eh     change       -0.7151313E+01 Eh
 * total energy  :   -68.5386095 Eh     change       -0.9090471E+01 Eh
 * total energy  :   -55.5816663 Eh     change        0.1295694E+02 Eh
 * total energy  :   -72.0099693 Eh     change       -0.1642830E+02 Eh
 * total energy  :   -72.2068902 Eh     change       -0.1969209E+00 Eh
 * total energy  :   -72.9348094 Eh     change       -0.7279192E+00 Eh
 * total energy  :   -73.1334905 Eh     change       -0.1986811E+00 Eh
 * total energy  :   -73.3058090 Eh     change       -0.4270927E-04 Eh
 * total energy  :   -73.3058897 Eh     change       -0.8071307E-04 Eh
 * total energy  :   -73.3059413 Eh     change       -0.5159110E-04 Eh
 * total energy  :   -73.3059921 Eh     change       -0.5086309E-04 Eh
 * total energy  :   -73.3060663 Eh     change       -0.7410797E-04 Eh
 * total energy  :   -73.3061133 Eh     change       -0.4706133E-04 Eh
 * total energy  :   -73.3061677 Eh     change       -0.5435732E-04 Eh
 * total energy  :   -73.3061932 Eh     change       -0.2550580E-04 Eh
 * total energy  :   -73.3062364 Eh     change       -0.4321793E-04 Eh
   *** GEOMETRY OPTIMIZATION CONVERGED AFTER 54 ITERATIONS ***

 final structure:
================
25
 xtb: 6.6.1 (8d0f1dd)
C            3.34356385903509        0.96216375332477       -0.10202269242617
N            2.42599395674834       -0.00187667021144       -0.06414292681468
C            2.62491068984593       -1.32858003686939       -0.27279461359283
N            1.44260212114794       -1.97654340850755       -0.19782395726529
C            0.46141564663148       -1.05453630103285        0.06199374677498
C            1.07421820841737        0.16968112437668        0.17676955885550
C            0.32490630514428        1.51612578007014        0.44365179305613
O            0.68235344787634        2.37304710136607       -0.51363692174699
N           -1.19660655252591        1.07074245865197        0.17260590692781
C           -2.06379001511368        2.21017252149081        0.04775720494843
C           -1.75231139835482       -0.16181479860134        0.12327065552810
O           -2.93953261221129       -0.35599596918318        0.04266520721930
N           -0.86580989699271       -1.27355540057909        0.14854064539095
C           -1.42290976177614       -2.60550591253629        0.06623650889610
H            0.32593084501332        1.63355373201326        0.80878405029532
H            4.36516345480502        0.70875384368890       -0.31366469468087
H            3.02816004507619        1.98474119209585        0.00711676437971
H            3.57282172787400       -1.78839620100044       -0.46533875505322
H           -1.51018151499146        3.00417439144576       -0.46057814820001
H           -2.95378799689555        1.93961417410032       -0.52053987091413
H           -2.37556890933148        2.56804132448953        1.03523103052597
H           -1.02856644256570       -3.23046970142448        0.86798038343150
H           -1.21178499851209       -3.06074893666981       -0.90345485656963
H           -2.50318932778219       -2.51543867977912        0.17750544510072
H            1.31243063353706       -2.96911083911737       -0.33493984616742

          :  Hamiltonian                  GFN2-xTB          :
         :: total energy             -73.306236395296 Eh    ::
         :: gradient norm              0.003011609035 Eh/a0 ::
         :: HOMO-LUMO gap              0.437576372932 eV    ::
         :: SCC energy               -42.623294504229 Eh    ::
         :: -> dispersion             -0.022801845206 Eh    ::
         :: repulsion energy           2.790258434077 Eh    ::

    * Orbital Energies and Occupations

         #    Occupation            Energy/Eh            Energy/eV
      -------------------------------------------------------------
         1        2.0000           -0.9166478             -24.9433
       ...           ...                  ...                  ...
        25        1.9999           -0.6720490             -18.2874
        26        1.9998           -0.6634659             -18.0538
        27        1.9998           -0.6592751             -17.9398
        28        1.9994           -0.6445236             -17.5384
        29        1.9989           -0.6354049             -17.2902
        30        1.9981           -0.6271970             -17.0669
        31        1.9973           -0.6213947             -16.9090
        32        1.9915           -0.6031242             -16.4118
        33        1.9673           -0.5816570             -15.8277
        34        1.9068           -0.5645556             -15.3623
        35        1.8260           -0.5539857             -15.0747
        36        1.7267           -0.5459523             -14.8561
        37        1.5191           -0.5349739             -14.5574 (HOMO)
        38        1.0672           -0.5188933             -14.1198 (LUMO)
        39        0.0021           -0.4078340             -11.0977
        40        0.0004           -0.3809107             -10.3651
        41        0.0000           -0.3340749              -9.0906
        42        0.0000           -0.2697782              -7.3410
        43                         -0.2045047              -5.5649
        44                         -0.1786251              -4.8606
        45                         -0.1727672              -4.7012
        46                         -0.0948176              -2.5801
        47                         -0.0792335              -2.1561
        48                         -0.0451998              -1.2299
       ...                                ...                  ...
        67                         13.7343380             373.7304
      -------------------------------------------------------------
                  HL-Gap            0.0160806 Eh            0.4376 eV

     #   Z          covCN         q      C6AA      α(0)
     1   6 C        2.790    -0.054    29.312     8.869
     2   7 N        2.821     0.131    19.006     6.475
     3   6 C        3.034     0.035    27.194     8.554
     4   7 N        2.787    -0.054    22.289     7.012
     5   6 C        3.019     0.115    25.436     8.273
     6   6 C        3.097    -0.020    28.382     8.731
     7   6 C        3.640     0.149    18.512     6.188
     8   8 O        0.862    -0.433    22.341     6.337
     9   7 N        2.710    -0.121    23.633     7.220
    10   6 C        3.701    -0.056    21.746     6.668
    11   6 C        2.718     0.321    21.538     7.597
    12   8 O        0.860    -0.353    20.754     6.108
    13   7 N        2.738    -0.056    22.319     7.017
    14   6 C        3.697    -0.072    22.059     6.718
    15   1 H        0.944     0.192     1.138     1.667
    16   1 H        0.926     0.118     1.627     1.995
    17   1 H        0.926     0.145     1.422     1.865
    18   1 H        0.926     0.129     1.546     1.944
    19   1 H        0.924     0.124     1.583     1.968
    20   1 H        0.925     0.116     1.648     2.008
    21   1 H        0.924     0.106     1.729     2.056
    22   1 H        0.924     0.086     1.916     2.165
    23   1 H        0.924     0.086     1.917     2.165
    24   1 H        0.925     0.130     1.531     1.935
    25   1 H        0.860     0.233     0.951     1.528

Wiberg/Mayer (AO) data.
largest (>0.10) Wiberg bond orders for each atom

     #   Z sym  total        # sym  WBO       # sym  WBO       # sym  WBO
 ---------------------------------------------------------------------------
     1   6 C    3.332 --     2 N    1.316    16 H    0.965    17 H    0.955
     2   7 N    3.763 --     1 C    1.316     3 C    1.227     6 C    1.121
     3   6 C    3.645 --     4 N    1.287     2 N    1.227    18 H    0.952
     4   7 N    3.518 --     3 C    1.287     5 C    1.157    25 H    0.916
     5   6 C    3.926 --     6 C    1.412    13 N    1.196     4 N    1.157
     6   6 C    3.711 --     5 C    1.412     2 N    1.121     7 C    0.899
     7   6 C    3.875 --     8 O    1.228    15 H    0.902     6 C    0.899
                             9 N    0.776
     8   8 O    1.381 --     7 C    1.228
     9   7 N    3.275 --    11 C    1.213    10 C    1.013     7 C    0.776
                            12 O    0.139
    10   6 C    3.868 --     9 N    1.013    20 H    0.949    19 H    0.942
                            21 H    0.925
    11   6 C    3.949 --    12 O    1.651     9 N    1.213    13 N    1.003
    12   8 O    1.963 --    11 C    1.651     9 N    0.139
    13   7 N    3.439 --     5 C    1.196    11 C    1.003    14 C    0.983
    14   6 C    3.913 --    13 N    0.983    22 H    0.966    23 H    0.961
                            24 H    0.961
    15   1 H    0.929 --     7 C    0.902
    16   1 H    0.985 --     1 C    0.965
    17   1 H    0.978 --     1 C    0.955
    18   1 H    0.982 --     3 C    0.952
    19   1 H    0.962 --    10 C    0.942
    20   1 H    0.966 --    10 C    0.949
    21   1 H    0.939 --    10 C    0.925
    22   1 H    0.980 --    14 C    0.966
    23   1 H    0.977 --    14 C    0.961
    24   1 H    0.981 --    14 C    0.961
    25   1 H    0.945 --     4 N    0.916
 ---------------------------------------------------------------------------

molecular dipole:
                 x           y           z       tot (Debye)
 q only:        2.468      -2.030       0.515
   full:        2.698      -2.408       0.543       9.296

           -------------------------------------------------
          | TOTAL ENERGY              -73.306236395296 Eh   |
          | GRADIENT NORM               0.003011609035 Eh/α |
          | HOMO-LUMO GAP               0.437576372932 eV   |
           -------------------------------------------------

 * finished run on 2024/06/05 at 20:00:24.958
