   * xtb version 6.6.1 (8d0f1dd) compiled by 'conda@1efc2f54142f' on 2023-08-01
          program call               : xtb xtbopt.xyz --opt crude --input .xc2 --gfn2

   ID    Z sym.   atoms
    1    6 C      1, 3, 5-7, 10, 11, 14
    2    7 N      2, 4, 9, 13
    3    8 O      8, 12
    4    1 H      15-25
########################################################################
[WARNING] Please study the warnings concerning your input carefully
-1- readin_getIntValue: could not parse ''
########################################################################

          :  Hamiltonian                  GFN2-xTB          :
 * total energy  :   -39.8329031 Eh     change       -0.2066969E-10 Eh
 * total energy  :   -42.1086695 Eh     change       -0.2275766E+01 Eh
 * total energy  :   -42.1179756 Eh     change       -0.9306068E-02 Eh
 * total energy  :   -42.1229507 Eh     change       -0.4975106E-02 Eh
 * total energy  :   -42.1254945 Eh     change       -0.2543788E-02 Eh
 * total energy  :   -42.1264126 Eh     change       -0.9181113E-03 Eh
 * total energy  :   -42.1275178 Eh     change       -0.1105149E-02 Eh
 * total energy  :   -42.1284870 Eh     change       -0.9692515E-03 Eh
 * total energy  :   -42.1293151 Eh     change       -0.8281348E-03 Eh
 * total energy  :   -42.1298037 Eh     change       -0.4885104E-03 Eh
 * total energy  :   -42.1299874 Eh     change       -0.1837714E-03 Eh
   *** GEOMETRY OPTIMIZATION CONVERGED AFTER 11 ITERATIONS ***

 final structure:
================
25
 xtb: 6.6.1 (8d0f1dd)
C            3.30809386173186        0.98248994735875       -0.13467822248663
N            2.41369088406314       -0.00309912498442       -0.08795387402426
C            2.63205890597238       -1.32862529070490       -0.28783715493243
N            1.45712531677671       -1.99410274021416       -0.22436741286443
C            0.46335827062474       -1.08407299158035        0.02791645070422
C            1.05948596674886        0.14777212930001        0.14170426754365
C            0.28795199582541        1.42990575529746        0.30349792487064
O            0.69048056401818        2.40678149410844       -0.44656730476808
N           -1.15854583930395        1.06612963411538        0.11608745053611
C           -2.02884853900696        2.20820766687350       -0.01836711732041
C           -1.73085675402624       -0.16535588120567        0.12317560871490
O           -2.92325054577474       -0.33854837070864        0.10619918796596
N           -0.86566960701047       -1.29424979554045        0.11652072312243
C           -1.44704864008742       -2.61664797658742        0.06742785440958
H            0.33373146159200        1.74970427745319        1.39342680591641
H            4.34092511304735        0.75447888180450       -0.31673797092658
H            2.94836708050606        1.99341559507918       -0.05227137263871
H            3.58837240761684       -1.77378705767805       -0.47237837331688
H           -1.47815885124669        2.98248189774817       -0.55663696543977
H           -2.92996587981983        1.92186285047224       -0.55749795036879
H           -2.31712564968332        2.59692987132056        0.96257769508251
H           -1.03953841914197       -3.24054299378249        0.86326211541948
H           -1.27187620949277       -3.08618726601935       -0.90268335086930
H           -2.52181099989240       -2.50561675783938        0.21053368316130
H            1.34948562006253       -2.99108521248436       -0.34318107959158

          :  Hamiltonian                  GFN2-xTB          :
         :: total energy             -42.129987429332 Eh    ::
         :: gradient norm              0.006513316380 Eh/a0 ::
         :: HOMO-LUMO gap              0.332775159626 eV    ::
         :: SCC energy               -42.631701538788 Eh    ::
         :: -> dispersion             -0.022864391636 Eh    ::
         :: repulsion energy           0.501571786858 Eh    ::

    * Orbital Energies and Occupations

         #    Occupation            Energy/Eh            Energy/eV
      -------------------------------------------------------------
         1        2.0000           -0.9155392             -24.9131
       ...           ...                  ...                  ...
        25        1.9999           -0.6715263             -18.2732
        26        1.9998           -0.6640518             -18.0698
        27        1.9998           -0.6569517             -17.8766
        28        1.9994           -0.6420448             -17.4709
        29        1.9990           -0.6347629             -17.2728
        30        1.9983           -0.6268411             -17.0572
        31        1.9975           -0.6203399             -16.8803
        32        1.9919           -0.6017861             -16.3754
        33        1.9697           -0.5807279             -15.8024
        34        1.9044           -0.5619811             -15.2923
        35        1.8499           -0.5543739             -15.0853
        36        1.7746           -0.5472816             -14.8923
        37        1.4344           -0.5293457             -14.4042 (HOMO)
        38        1.0790           -0.5171165             -14.0715 (LUMO)
        39        0.0022           -0.4069516             -11.0737
        40        0.0004           -0.3800376             -10.3413
        41        0.0000           -0.3353805              -9.1262
        42                         -0.2105958              -5.7306
        43                         -0.1984852              -5.4011
        44                         -0.1617530              -4.4015
        45                         -0.1417203              -3.8564
        46                         -0.0919234              -2.5014
        47                         -0.0674203              -1.8346
        48                         -0.0419172              -1.1406
       ...                                ...                  ...
        67                          0.5081344              13.8270
      -------------------------------------------------------------
                  HL-Gap            0.0122293 Eh            0.3328 eV

     #   Z          covCN         q      C6AA      α(0)
     1   6 C        2.790    -0.056    29.373     8.878
     2   7 N        2.820     0.130    19.032     6.479
     3   6 C        3.038     0.033    27.227     8.558
     4   7 N        2.786    -0.054    22.291     7.012
     5   6 C        3.022     0.114    25.460     8.277
     6   6 C        3.105    -0.019    28.344     8.723
     7   6 C        3.661     0.216    17.462     5.996
     8   8 O        0.856    -0.418    22.042     6.295
     9   7 N        2.733    -0.095    23.096     7.138
    10   6 C        3.705    -0.060    21.805     6.676
    11   6 C        2.720     0.318    21.597     7.608
    12   8 O        0.860    -0.353    20.769     6.110
    13   7 N        2.738    -0.057    22.343     7.020
    14   6 C        3.696    -0.072    22.051     6.718
    15   1 H        0.916     0.099     1.799     2.098
    16   1 H        0.926     0.119     1.624     1.993
    17   1 H        0.926     0.148     1.404     1.853
    18   1 H        0.926     0.128     1.551     1.947
    19   1 H        0.924     0.125     1.572     1.961
    20   1 H        0.925     0.115     1.655     2.012
    21   1 H        0.924     0.104     1.745     2.066
    22   1 H        0.924     0.086     1.921     2.168
    23   1 H        0.924     0.087     1.906     2.159
    24   1 H        0.925     0.130     1.532     1.936
    25   1 H        0.860     0.232     0.955     1.530

Wiberg/Mayer (AO) data.
largest (>0.10) Wiberg bond orders for each atom

     #   Z sym  total        # sym  WBO       # sym  WBO       # sym  WBO
 ---------------------------------------------------------------------------
     1   6 C    3.331 --     2 N    1.314    16 H    0.964    17 H    0.952
     2   7 N    3.763 --     1 C    1.314     3 C    1.227     6 C    1.122
     3   6 C    3.643 --     4 N    1.281     2 N    1.227    18 H    0.953
     4   7 N    3.519 --     3 C    1.281     5 C    1.162    25 H    0.917
     5   6 C    3.927 --     6 C    1.408    13 N    1.195     4 N    1.162
     6   6 C    3.748 --     5 C    1.408     2 N    1.122     7 C    0.946
     7   6 C    3.932 --     8 O    1.228     6 C    0.946     9 N    0.875
                            15 H    0.822
     8   8 O    1.373 --     7 C    1.228
     9   7 N    3.330 --    11 C    1.199    10 C    0.999     7 C    0.875
                            12 O    0.140
    10   6 C    3.871 --     9 N    0.999    20 H    0.956    19 H    0.945
                            21 H    0.931
    11   6 C    3.952 --    12 O    1.662     9 N    1.199    13 N    1.007
    12   8 O    1.979 --    11 C    1.662     9 N    0.140
    13   7 N    3.444 --     5 C    1.195    11 C    1.007    14 C    0.982
    14   6 C    3.913 --    13 N    0.982    22 H    0.966    23 H    0.961
                            24 H    0.961
    15   1 H    0.843 --     7 C    0.822
    16   1 H    0.984 --     1 C    0.964
    17   1 H    0.977 --     1 C    0.952
    18   1 H    0.982 --     3 C    0.953
    19   1 H    0.965 --    10 C    0.945
    20   1 H    0.972 --    10 C    0.956
    21   1 H    0.946 --    10 C    0.931
    22   1 H    0.981 --    14 C    0.966
    23   1 H    0.977 --    14 C    0.961
    24   1 H    0.981 --    14 C    0.961
    25   1 H    0.945 --     4 N    0.917
 ---------------------------------------------------------------------------

molecular dipole:
                 x           y           z       tot (Debye)
 q only:        2.406      -2.065       0.327
   full:        2.665      -2.475       0.442       9.313

           -------------------------------------------------
          | TOTAL ENERGY              -42.129987429332 Eh   |
          | GRADIENT NORM               0.006513316380 Eh/α |
          | HOMO-LUMO GAP               0.332775159626 eV   |
           -------------------------------------------------

 * finished run on 2024/06/05 at 20:00:25.376
