   * xtb version 6.6.1 (8d0f1dd) compiled by 'conda@1efc2f54142f' on 2023-08-01
          program call               : xtb struc.xyz --opt loose --input .xc1 --gfn2

   ID    Z sym.   atoms
    1    6 C      1, 3, 5-7, 10, 11, 14
    2    7 N      2, 4, 9, 13
    3    8 O      8, 12
    4    1 H      15-25
constraining bond 6 15 to    3.7133300 Å, actual value:    3.1327550 Å

          :  Hamiltonian                  GFN2-xTB          :
 * total energy  :   -42.8618950 Eh     change       -0.2401990E-09 Eh
 * total energy  :   -45.1790843 Eh     change       -0.2317189E+01 Eh
 * total energy  :   -49.1732465 Eh     change       -0.3994162E+01 Eh
 * total energy  :   -55.0585110 Eh     change       -0.5885265E+01 Eh
 * total energy  :   -56.7297841 Eh     change       -0.1671273E+01 Eh
 * total energy  :   -58.1716362 Eh     change       -0.1441852E+01 Eh
 * total energy  :   -58.8173236 Eh     change       -0.6456874E+00 Eh
 * total energy  :   -58.7319104 Eh     change        0.8541316E-01 Eh
 * total energy  :   -59.3073796 Eh     change       -0.5754692E+00 Eh
 * total energy  :   -59.4031081 Eh     change       -0.9572850E-01 Eh
 * total energy  :   -59.7722210 Eh     change       -0.1320387E-03 Eh
 * total energy  :   -59.7722963 Eh     change       -0.7524414E-04 Eh
 * total energy  :   -59.7723798 Eh     change       -0.8357156E-04 Eh
 * total energy  :   -59.7724229 Eh     change       -0.4310947E-04 Eh
 * total energy  :   -59.7724565 Eh     change       -0.3352731E-04 Eh
 * total energy  :   -59.7724791 Eh     change       -0.2263217E-04 Eh
 * total energy  :   -59.7720667 Eh     change        0.4123980E-03 Eh
 * total energy  :   -59.7724958 Eh     change       -0.4291239E-03 Eh
 * total energy  :   -59.7725020 Eh     change       -0.6125539E-05 Eh
   *** GEOMETRY OPTIMIZATION CONVERGED AFTER 46 ITERATIONS ***

 final structure:
================
25
 xtb: 6.6.1 (8d0f1dd)
C            3.28705609593236        1.14150357333658        0.13822283707930
N            2.41905540740924        0.15108344612500        0.06390533194771
C            2.54779985895477       -1.04373090388225       -0.55014609149563
N            1.39301608707703       -1.75885019462276       -0.44252747085204
C            0.47423159818664       -1.06996192977660        0.27650097757705
C            1.07851769313292        0.24249226507515        0.72959753386037
C            0.18136051828837        1.32339511610362       -0.09000270253665
O            0.69449488837748        2.24098268383405       -0.66723103124202
N           -1.14603252679361        1.06264429274459        0.04437391948723
C           -2.09108418839452        2.11876830259029       -0.30604778080647
C           -1.72582035497580       -0.16732189325347        0.38217769638801
O           -2.90040696936622       -0.28576405127457        0.60800860036707
N           -0.86171061607208       -1.27001340303003        0.33709830776755
C           -1.43982945229385       -2.60076732514335        0.29038077649197
H            1.08425325728617        0.35119435125049        1.13981146669912
H            4.24024305943956        1.04891414285950       -0.34589676508055
H            3.02022707665072        2.03984318232453        0.65816459833451
H            3.42374645632428       -1.38041375264525       -1.06244656487664
H           -1.55210588346820        3.06064222783029       -0.37027116858948
H           -2.56546522580461        1.90201209370642       -1.26366889653257
H           -2.86153648331794        2.16830049606842        0.46243202929999
H           -0.93244897140148       -3.25437201053682        0.99833732615231
H           -1.37505636910465       -3.01792793949013       -0.71603403028149
H           -2.48984497305021       -2.51255747744945        0.56687837514587
H            1.25777153108318       -2.67185675114398       -0.85044565640511

          :  Hamiltonian                  GFN2-xTB          :
         :: total energy             -59.772501954928 Eh    ::
         :: gradient norm              0.001291740578 Eh/a0 ::
         :: HOMO-LUMO gap              1.589883347987 eV    ::
         :: SCC energy               -42.711088585490 Eh    ::
         :: -> dispersion             -0.023113673570 Eh    ::
         :: repulsion energy           2.252508065347 Eh    ::

    * Orbital Energies and Occupations

         #    Occupation            Energy/Eh            Energy/eV
      -------------------------------------------------------------
         1        2.0000           -0.9106708             -24.7806
       ...           ...                  ...                  ...
        25        1.9994           -0.6775198             -18.4363
        26        1.9993           -0.6726642             -18.3041
        27        1.9991           -0.6659396             -18.1211
        28        1.9989           -0.6609908             -17.9865
        29        1.9974           -0.6407951             -17.4369
        30        1.9964           -0.6332977             -17.2329
        31        1.9956           -0.6282887             -17.0966
        32        1.9915           -0.6127430             -16.6736
        33        1.9889           -0.6062373             -16.4966
        34        1.9746           -0.5864319             -15.9576
        35        1.9664           -0.5796800             -15.7739
        36        1.9538           -0.5719704             -15.5641
        37        1.5555           -0.5127992             -13.9540 (HOMO)
        38        0.4604           -0.4543721             -12.3641 (LUMO)
        39        0.0834           -0.4085846             -11.1182
        40        0.0351           -0.3874454             -10.5429
        41        0.0062           -0.3457826              -9.4092
        42        0.0001           -0.2391890              -6.5087
        43        0.0000           -0.2004336              -5.4541
        44        0.0000           -0.1962145              -5.3393
        45        0.0000           -0.1590007              -4.3266
        46        0.0000           -0.1304441              -3.5496
        47        0.0000           -0.0897236              -2.4415
        48                         -0.0655169              -1.7828
       ...                                ...                  ...
        67                         10.4485281             284.3189
      -------------------------------------------------------------
                  HL-Gap            0.0584271 Eh            1.5899 eV

     #   Z          covCN         q      C6AA      α(0)
     1   6 C        2.786    -0.065    29.603     8.912
     2   7 N        2.781     0.081    19.832     6.614
     3   6 C        2.905     0.015    27.682     8.627
     4   7 N        2.726    -0.059    22.390     7.028
     5   6 C        2.970     0.074    26.337     8.418
     6   6 C        3.830    -0.060    21.632     6.618
     7   6 C        2.755     0.257    22.667     7.796
     8   8 O        0.857    -0.323    20.208     6.027
     9   7 N        2.734    -0.082    22.836     7.097
    10   6 C        3.708    -0.060    21.805     6.674
    11   6 C        2.724     0.308    21.759     7.636
    12   8 O        0.859    -0.342    20.548     6.078
    13   7 N        2.734    -0.059    22.376     7.026
    14   6 C        3.697    -0.072    22.047     6.716
    15   1 H        0.940     0.189     1.155     1.680
    16   1 H        0.926     0.109     1.702     2.040
    17   1 H        0.926     0.119     1.623     1.992
    18   1 H        0.927     0.117     1.637     2.001
    19   1 H        0.925     0.108     1.713     2.047
    20   1 H        0.924     0.099     1.790     2.092
    21   1 H        0.925     0.115     1.657     2.013
    22   1 H        0.925     0.090     1.877     2.143
    23   1 H        0.924     0.085     1.931     2.173
    24   1 H        0.925     0.128     1.553     1.949
    25   1 H        0.860     0.227     0.978     1.549

Wiberg/Mayer (AO) data.
largest (>0.10) Wiberg bond orders for each atom

     #   Z sym  total        # sym  WBO       # sym  WBO       # sym  WBO
 ---------------------------------------------------------------------------
     1   6 C    3.517 --     2 N    1.388    17 H    0.963    16 H    0.961
                             3 C    0.115
     2   7 N    3.666 --     1 C    1.388     3 C    1.240     6 C    0.956
     3   6 C    3.630 --     2 N    1.240     4 N    1.204    18 H    0.953
                             1 C    0.115
     4   7 N    3.493 --     5 C    1.223     3 C    1.204    25 H    0.918
     5   6 C    3.637 --     4 N    1.223    13 N    1.197     6 C    1.012
     6   6 C    3.905 --     5 C    1.012     2 N    0.956    15 H    0.925
                             7 C    0.798
     7   6 C    3.839 --     8 O    1.748     9 N    1.186     6 C    0.798
     8   8 O    2.059 --     7 C    1.748     9 N    0.143
     9   7 N    3.516 --     7 C    1.186    11 C    1.058    10 C    0.958
                             8 O    0.143    12 O    0.104
    10   6 C    3.892 --    19 H    0.969    20 H    0.960     9 N    0.958
                            21 H    0.958
    11   6 C    3.881 --    12 O    1.688     9 N    1.058    13 N    1.052
    12   8 O    1.978 --    11 C    1.688    13 N    0.109     9 N    0.104
    13   7 N    3.470 --     5 C    1.197    11 C    1.052    14 C    0.969
                            12 O    0.109
    14   6 C    3.910 --    22 H    0.970    13 N    0.969    23 H    0.964
                            24 H    0.961
    15   1 H    0.957 --     6 C    0.925
    16   1 H    0.985 --     1 C    0.961
    17   1 H    0.984 --     1 C    0.963
    18   1 H    0.985 --     3 C    0.953
    19   1 H    0.983 --    10 C    0.969
    20   1 H    0.977 --    10 C    0.960
    21   1 H    0.976 --    10 C    0.958
    22   1 H    0.984 --    14 C    0.970
    23   1 H    0.983 --    14 C    0.964
    24   1 H    0.980 --    14 C    0.961
    25   1 H    0.948 --     4 N    0.918
 ---------------------------------------------------------------------------

molecular dipole:
                 x           y           z       tot (Debye)
 q only:        1.900      -1.522      -0.009
   full:        2.156      -1.829      -0.107       7.192

           -------------------------------------------------
          | TOTAL ENERGY              -59.772501954928 Eh   |
          | GRADIENT NORM               0.001291740578 Eh/α |
          | HOMO-LUMO GAP               1.589883347987 eV   |
           -------------------------------------------------

 * finished run on 2024/06/05 at 19:58:58.709
