   * xtb version 6.6.1 (8d0f1dd) compiled by 'conda@1efc2f54142f' on 2023-08-01
          program call               : xtb xtbopt.xyz --opt crude --input .xc2 --gfn2

   ID    Z sym.   atoms
    1    6 C      1, 3, 5-7, 10, 11, 14
    2    7 N      2, 4, 9, 13
    3    8 O      8, 12
    4    1 H      15-25
########################################################################
[WARNING] Please study the warnings concerning your input carefully
-1- readin_getIntValue: could not parse ''
########################################################################

          :  Hamiltonian                  GFN2-xTB          :
 * total energy  :   -40.4584204 Eh     change        0.1563194E-12 Eh
 * total energy  :   -42.1720830 Eh     change       -0.1713663E+01 Eh
 * total energy  :   -42.1894557 Eh     change       -0.1737270E-01 Eh
 * total energy  :   -42.1933161 Eh     change       -0.3860339E-02 Eh
 * total energy  :   -42.1940886 Eh     change       -0.7725041E-03 Eh
 * total energy  :   -42.1946887 Eh     change       -0.6001000E-03 Eh
 * total energy  :   -42.1953815 Eh     change       -0.6928463E-03 Eh
 * total energy  :   -42.1959685 Eh     change       -0.5870402E-03 Eh
 * total energy  :   -42.1962436 Eh     change       -0.2750282E-03 Eh
   *** GEOMETRY OPTIMIZATION CONVERGED AFTER 9 ITERATIONS ***

 final structure:
================
25
 xtb: 6.6.1 (8d0f1dd)
C            3.28066918264352        1.13840781739253        0.03505938352653
N            2.41146651463785        0.14388571604444        0.01354819145498
C            2.56601643995287       -1.09280732509041       -0.51075748040374
N            1.41368409124898       -1.81146104146491       -0.38543563484711
C            0.47530538173345       -1.07767086072672        0.25704353944820
C            1.06962185635646        0.24387490539471        0.56921179190395
C            0.18375986889984        1.34234945189876       -0.09318657389961
O            0.65183888089332        2.32536822808083       -0.60491404481418
N           -1.15195547063862        1.06155357735133        0.01332140804152
C           -2.10146502275370        2.13114092870291       -0.27391039537782
C           -1.72658055516005       -0.17125898656388        0.32699601254878
O           -2.90515593678053       -0.30261835079216        0.53089761188006
N           -0.85894127999221       -1.27461652667697        0.29983433402351
C           -1.43756994136794       -2.60391871229520        0.23392342239941
H            1.09402800112262        0.50776476965501        1.63671795020132
H            4.24039737699519        1.00570421842039       -0.42740313637577
H            3.00155262844889        2.07949474629852        0.46322320530773
H            3.46438396720069       -1.45769320226714       -0.96115240830370
H           -1.56013962428059        3.07268018889689       -0.31883990613281
H           -2.60073343928399        1.94929252719081       -1.22594720286275
H           -2.85399374909979        2.15621001339985        0.51388545654202
H           -0.91351996709975       -3.27495260347153        0.91252941102591
H           -1.39816426931138       -2.99514969842835       -0.78461820290420
H           -2.48139037077624       -2.52289943414477        0.53615048966146
H            1.29731695051072       -2.75444180520474       -0.72500560414419

          :  Hamiltonian                  GFN2-xTB          :
         :: total energy             -42.196243579795 Eh    ::
         :: gradient norm              0.006991756445 Eh/a0 ::
         :: HOMO-LUMO gap              1.573775583831 eV    ::
         :: SCC energy               -42.704444748368 Eh    ::
         :: -> dispersion             -0.023029910503 Eh    ::
         :: repulsion energy           0.508035437196 Eh    ::

    * Orbital Energies and Occupations

         #    Occupation            Energy/Eh            Energy/eV
      -------------------------------------------------------------
         1        2.0000           -0.9027302             -24.5645
       ...           ...                  ...                  ...
        25        1.9995           -0.6759764             -18.3943
        26        1.9994           -0.6722996             -18.2942
        27        1.9991           -0.6638238             -18.0636
        28        1.9988           -0.6580272             -17.9058
        29        1.9972           -0.6374269             -17.3453
        30        1.9966           -0.6328856             -17.2217
        31        1.9959           -0.6281931             -17.0940
        32        1.9911           -0.6096295             -16.5889
        33        1.9880           -0.6026526             -16.3990
        34        1.9756           -0.5855331             -15.9332
        35        1.9638           -0.5760610             -15.6754
        36        1.9526           -0.5694908             -15.4966
        37        1.5526           -0.5107437             -13.8980 (HOMO)
        38        0.4662           -0.4529085             -12.3243 (LUMO)
        39        0.0835           -0.4067603             -11.0685
        40        0.0366           -0.3866022             -10.5200
        41        0.0056           -0.3415522              -9.2941
        42        0.0000           -0.2096795              -5.7057
        43        0.0000           -0.1920466              -5.2259
        44        0.0000           -0.1561118              -4.2480
        45        0.0000           -0.1467137              -3.9923
        46        0.0000           -0.1036092              -2.8194
        47                         -0.0797071              -2.1689
        48                         -0.0569085              -1.5486
       ...                                ...                  ...
        67                          0.5182655              14.1027
      -------------------------------------------------------------
                  HL-Gap            0.0578352 Eh            1.5738 eV

     #   Z          covCN         q      C6AA      α(0)
     1   6 C        2.787    -0.070    29.714     8.929
     2   7 N        2.781     0.098    19.548     6.567
     3   6 C        2.942     0.012    27.742     8.638
     4   7 N        2.737    -0.056    22.331     7.019
     5   6 C        2.970     0.079    26.239     8.402
     6   6 C        3.890    -0.004    20.606     6.453
     7   6 C        2.762     0.262    22.589     7.783
     8   8 O        0.857    -0.331    20.347     6.048
     9   7 N        2.736    -0.083    22.851     7.100
    10   6 C        3.708    -0.061    21.814     6.676
    11   6 C        2.724     0.308    21.775     7.639
    12   8 O        0.859    -0.345    20.610     6.087
    13   7 N        2.735    -0.054    22.278     7.010
    14   6 C        3.698    -0.072    22.052     6.717
    15   1 H        0.923     0.118     1.633     1.998
    16   1 H        0.926     0.109     1.703     2.041
    17   1 H        0.926     0.121     1.607     1.983
    18   1 H        0.927     0.117     1.641     2.003
    19   1 H        0.925     0.110     1.695     2.036
    20   1 H        0.924     0.100     1.780     2.087
    21   1 H        0.925     0.112     1.677     2.025
    22   1 H        0.925     0.089     1.893     2.152
    23   1 H        0.924     0.087     1.913     2.163
    24   1 H        0.925     0.128     1.547     1.945
    25   1 H        0.860     0.226     0.983     1.553

Wiberg/Mayer (AO) data.
largest (>0.10) Wiberg bond orders for each atom

     #   Z sym  total        # sym  WBO       # sym  WBO       # sym  WBO
 ---------------------------------------------------------------------------
     1   6 C    3.506 --     2 N    1.380    16 H    0.963    17 H    0.963
                             3 C    0.117
     2   7 N    3.668 --     1 C    1.380     3 C    1.234     6 C    0.977
     3   6 C    3.623 --     2 N    1.234     4 N    1.199    18 H    0.955
                             1 C    0.117
     4   7 N    3.495 --     5 C    1.225     3 C    1.199    25 H    0.920
     5   6 C    3.636 --     4 N    1.225    13 N    1.207     6 C    1.017
     6   6 C    3.953 --     5 C    1.017     2 N    0.977    15 H    0.912
                             7 C    0.870
     7   6 C    3.858 --     8 O    1.732     9 N    1.167     6 C    0.870
     8   8 O    2.032 --     7 C    1.732     9 N    0.143
     9   7 N    3.516 --     7 C    1.167    11 C    1.073    10 C    0.962
                             8 O    0.143    12 O    0.107
    10   6 C    3.892 --    19 H    0.967     9 N    0.962    20 H    0.959
                            21 H    0.958
    11   6 C    3.884 --    12 O    1.683     9 N    1.073    13 N    1.047
    12   8 O    1.974 --    11 C    1.683     9 N    0.107    13 N    0.107
    13   7 N    3.475 --     5 C    1.207    11 C    1.047    14 C    0.971
                            12 O    0.107
    14   6 C    3.912 --    13 N    0.971    22 H    0.971    23 H    0.963
                            24 H    0.960
    15   1 H    0.955 --     6 C    0.912
    16   1 H    0.985 --     1 C    0.963
    17   1 H    0.983 --     1 C    0.963
    18   1 H    0.985 --     3 C    0.955
    19   1 H    0.982 --    10 C    0.967
    20   1 H    0.977 --    10 C    0.959
    21   1 H    0.976 --    10 C    0.958
    22   1 H    0.985 --    14 C    0.971
    23   1 H    0.982 --    14 C    0.963
    24   1 H    0.980 --    14 C    0.960
    25   1 H    0.949 --     4 N    0.920
 ---------------------------------------------------------------------------

molecular dipole:
                 x           y           z       tot (Debye)
 q only:        1.976      -1.622       0.028
   full:        2.233      -1.943       0.022       7.524

           -------------------------------------------------
          | TOTAL ENERGY              -42.196243579795 Eh   |
          | GRADIENT NORM               0.006991756445 Eh/α |
          | HOMO-LUMO GAP               1.573775583831 eV   |
           -------------------------------------------------

 * finished run on 2024/06/05 at 19:58:59.104
