   * xtb version 6.6.1 (8d0f1dd) compiled by 'conda@1efc2f54142f' on 2023-08-01
          program call               : xtb struc.xyz --opt loose --input .xc1 --gfn2

   ID    Z sym.   atoms
    1    6 C      1, 3, 5-7, 10, 11, 14
    2    7 N      2, 4, 9, 13
    3    8 O      8, 12
    4    1 H      15-25
constraining bond 2 13 to    5.8400000 Å, actual value:    3.5076258 Å

          :  Hamiltonian                  GFN2-xTB          :
 * total energy  :   -32.5468108 Eh     change       -0.2401990E-09 Eh
 * total energy  :   -36.3508743 Eh     change       -0.3804064E+01 Eh
 * total energy  :   -38.9863698 Eh     change       -0.2635495E+01 Eh
 * total energy  :   -40.6280490 Eh     change       -0.1641679E+01 Eh
 * total energy  :   -41.4598613 Eh     change       -0.8318123E+00 Eh
 * total energy  :   -41.6406036 Eh     change       -0.1807423E+00 Eh
 * total energy  :   -41.6884877 Eh     change       -0.4788407E-01 Eh
 * total energy  :   -41.7816677 Eh     change       -0.9318000E-01 Eh
 * total energy  :   -41.8358579 Eh     change       -0.5419021E-01 Eh
 * total energy  :   -41.8755052 Eh     change       -0.3964728E-01 Eh
 * total energy  :   -42.1446159 Eh     change        0.6882023E-04 Eh
 * total energy  :   -42.1467172 Eh     change       -0.2101282E-02 Eh
 * total energy  :   -42.1469765 Eh     change       -0.2593267E-03 Eh
 * total energy  :   -42.1473887 Eh     change       -0.4122067E-03 Eh
 * total energy  :   -42.1475491 Eh     change       -0.1604012E-03 Eh
 * total energy  :   -42.1476129 Eh     change       -0.6380486E-04 Eh
 * total energy  :   -42.1476614 Eh     change       -0.4846025E-04 Eh
 * total energy  :   -42.1476986 Eh     change       -0.3729657E-04 Eh
 * total energy  :   -42.1477306 Eh     change       -0.3197493E-04 Eh
   *** GEOMETRY OPTIMIZATION CONVERGED AFTER 44 ITERATIONS ***

 final structure:
================
25
 xtb: 6.6.1 (8d0f1dd)
C            3.80749412576866        1.01913181682110        0.05542411002590
N            4.23793828193332       -0.31951593427848        0.03555687384502
C            3.51681335218916       -1.35437057359682        0.00429421499442
N            2.10604724630980       -1.60292593283616       -0.02688632417199
C            1.03098871444997       -0.84375328626362       -0.00829467715690
C           -0.24560727694999       -0.45126748537438       -0.01421026183617
C           -0.53661968253633        1.02190164649256       -0.02079863903856
O            0.26791485731675        1.92200098214272       -0.03045692224408
N           -1.90212268123660        1.13745191366167       -0.01386179940793
C           -2.61933078984507        2.38396292952047       -0.01686716510749
C           -2.52805377562541       -0.10427744735865       -0.00249736329081
O           -3.71143923904257       -0.30964909196341        0.00720197234276
N           -1.53949306257752       -1.06538505869864       -0.00451583436129
C           -1.80693826026011       -2.47150794807334        0.00698080688921
H            4.19397136936766        1.49867385950505        0.95899565211405
H            4.24900356300326        1.54080385681573       -0.79822322583054
H            2.71001849936804        1.12971990327677        0.02447818287160
H            4.05170704222063       -2.29730213582972       -0.00952133399958
H           -1.89360437675819        3.19646412303961       -0.01691694541491
H           -3.25466541262777        2.44872895325819       -0.90302293708563
H           -3.25701614906257        2.45020232093845        0.86740929338349
H           -1.36781083395650       -2.94402153326188        0.88847400030307
H           -1.41283675190875       -2.95026212110078       -0.89262961021510
H           -2.89046284327884       -2.60231822560163        0.03381341475621
H            1.95453559783824       -2.61424698963283       -0.09275386446440

          :  Hamiltonian                  GFN2-xTB          :
         :: total energy             -42.147730623689 Eh    ::
         :: gradient norm              0.002001067206 Eh/a0 ::
         :: HOMO-LUMO gap              0.923071459266 eV    ::
         :: SCC energy               -42.670012375356 Eh    ::
         :: -> dispersion             -0.019931253213 Eh    ::
         :: repulsion energy           0.521894423063 Eh    ::

    * Orbital Energies and Occupations

         #    Occupation            Energy/Eh            Energy/eV
      -------------------------------------------------------------
         1        2.0000           -0.8837804             -24.0489
       ...           ...                  ...                  ...
        25        1.9977           -0.6668291             -18.1453
        26        1.9971           -0.6612521             -17.9936
        27        1.9944           -0.6455793             -17.5671
        28        1.9898           -0.6312755             -17.1779
        29        1.9871           -0.6255799             -17.0229
        30        1.9838           -0.6201774             -16.8759
        31        1.9792           -0.6142106             -16.7135
        32        1.9503           -0.5931335             -16.1400
        33        1.9370           -0.5873535             -15.9827
        34        1.8930           -0.5742235             -15.6254
        35        1.8762           -0.5705484             -15.5254
        36        1.7926           -0.5572048             -15.1623
        37        1.5757           -0.5371368             -14.6162 (HOMO)
        38        0.9419           -0.5032146             -13.6932 (LUMO)
        39        0.0982           -0.4355918             -11.8531
        40        0.0120           -0.3845889             -10.4652
        41        0.0018           -0.3394787              -9.2377
        42        0.0004           -0.3059974              -8.3266
        43        0.0000           -0.2171438              -5.9088
        44        0.0000           -0.1777290              -4.8363
        45        0.0000           -0.1348933              -3.6706
        46                         -0.0883340              -2.4037
        47                         -0.0596166              -1.6223
        48                         -0.0291038              -0.7920
       ...                                ...                  ...
        67                          0.6784458              18.4614
      -------------------------------------------------------------
                  HL-Gap            0.0339223 Eh            0.9231 eV

     #   Z          covCN         q      C6AA      α(0)
     1   6 C        3.698    -0.052    21.682     6.660
     2   7 N        1.820    -0.091    23.758     7.222
     3   6 C        2.764     0.102    25.733     8.308
     4   7 N        2.678    -0.041    22.033     6.971
     5   6 C        1.903     0.025    30.473     8.915
     6   6 C        2.944     0.016    27.657     8.625
     7   6 C        2.839     0.271    22.437     7.763
     8   8 O        0.857    -0.332    20.362     6.050
     9   7 N        2.783    -0.060    22.400     7.029
    10   6 C        3.690    -0.057    21.793     6.681
    11   6 C        2.797     0.322    21.540     7.603
    12   8 O        0.857    -0.329    20.310     6.042
    13   7 N        2.776    -0.043    22.070     6.977
    14   6 C        3.688    -0.062    21.893     6.697
    15   1 H        0.924     0.123     1.586     1.969
    16   1 H        0.924     0.124     1.583     1.968
    17   1 H        0.923     0.101     1.777     2.085
    18   1 H        0.925     0.108     1.715     2.048
    19   1 H        0.925     0.117     1.640     2.002
    20   1 H        0.924     0.113     1.668     2.020
    21   1 H        0.924     0.113     1.667     2.019
    22   1 H        0.924     0.093     1.848     2.126
    23   1 H        0.924     0.093     1.846     2.124
    24   1 H        0.924     0.123     1.590     1.972
    25   1 H        0.859     0.223     0.998     1.565

Wiberg/Mayer (AO) data.
largest (>0.10) Wiberg bond orders for each atom

     #   Z sym  total        # sym  WBO       # sym  WBO       # sym  WBO
 ---------------------------------------------------------------------------
     1   6 C    3.871 --     2 N    1.074    16 H    0.920    15 H    0.919
                            17 H    0.909
     2   7 N    3.003 --     3 C    1.778     1 C    1.074
     3   6 C    3.870 --     2 N    1.778     4 N    1.045    18 H    0.936
     4   7 N    3.445 --     5 C    1.352     3 C    1.045    25 H    0.880
     5   6 C    3.139 --     6 C    1.578     4 N    1.352
     6   6 C    3.774 --     5 C    1.578    13 N    1.045     7 C    0.948
     7   6 C    3.863 --     8 O    1.684     9 N    1.138     6 C    0.948
     8   8 O    1.946 --     7 C    1.684     9 N    0.118
     9   7 N    3.472 --     7 C    1.138    11 C    1.068    10 C    0.987
                             8 O    0.118
    10   6 C    3.868 --     9 N    0.987    19 H    0.959    21 H    0.943
                            20 H    0.942
    11   6 C    3.929 --    12 O    1.671    13 N    1.108     9 N    1.068
    12   8 O    1.945 --    11 C    1.671    13 N    0.111
    13   7 N    3.352 --    11 C    1.108     6 C    1.045    14 C    1.002
                            12 O    0.111
    14   6 C    3.899 --    13 N    1.002    24 H    0.955    22 H    0.953
                            23 H    0.952
    15   1 H    0.955 --     1 C    0.919
    16   1 H    0.955 --     1 C    0.920
    17   1 H    0.936 --     1 C    0.909
    18   1 H    0.974 --     3 C    0.936
    19   1 H    0.973 --    10 C    0.959
    20   1 H    0.958 --    10 C    0.942
    21   1 H    0.959 --    10 C    0.943
    22   1 H    0.968 --    14 C    0.953
    23   1 H    0.967 --    14 C    0.952
    24   1 H    0.973 --    14 C    0.955
    25   1 H    0.893 --     4 N    0.880
 ---------------------------------------------------------------------------

molecular dipole:
                 x           y           z       tot (Debye)
 q only:        1.775      -1.329      -0.008
   full:        1.517      -1.629      -0.021       5.657

           -------------------------------------------------
          | TOTAL ENERGY              -42.147730623689 Eh   |
          | GRADIENT NORM               0.002001067206 Eh/α |
          | HOMO-LUMO GAP               0.923071459266 eV   |
           -------------------------------------------------

 * finished run on 2024/06/05 at 19:58:42.309
