   * xtb version 6.6.1 (8d0f1dd) compiled by 'conda@1efc2f54142f' on 2023-08-01
          program call               : xtb xtbopt.xyz --opt crude --input .xc2 --gfn2

   ID    Z sym.   atoms
    1    6 C      1, 3, 5-7, 10, 11, 14
    2    7 N      2, 4, 9, 13
    3    8 O      8, 12
    4    1 H      15-25
########################################################################
[WARNING] Please study the warnings concerning your input carefully
-1- readin_getIntValue: could not parse ''
########################################################################

          :  Hamiltonian                  GFN2-xTB          :
 * total energy  :   -42.1481052 Eh     change       -0.1264766E-11 Eh
 * total energy  :   -42.1535222 Eh     change       -0.5417072E-02 Eh
 * total energy  :   -42.1579474 Eh     change       -0.4425174E-02 Eh
 * total energy  :   -42.1596237 Eh     change       -0.1676245E-02 Eh
 * total energy  :   -42.1609232 Eh     change       -0.1299589E-02 Eh
 * total energy  :   -42.1623780 Eh     change       -0.1454773E-02 Eh
 * total energy  :   -42.1641562 Eh     change       -0.1778142E-02 Eh
 * total energy  :   -42.1660516 Eh     change       -0.1895474E-02 Eh
 * total energy  :   -42.1676381 Eh     change       -0.1586472E-02 Eh
 * total energy  :   -42.1695827 Eh     change       -0.1944621E-02 Eh
 * total energy  :   -42.1907752 Eh     change       -0.1739047E-02 Eh
 * total energy  :   -42.1911298 Eh     change       -0.3545968E-03 Eh
 * total energy  :   -42.1920786 Eh     change       -0.9488695E-03 Eh
 * total energy  :   -42.1931499 Eh     change       -0.1071282E-02 Eh
 * total energy  :   -42.1941173 Eh     change       -0.9673849E-03 Eh
 * total energy  :   -42.1951491 Eh     change       -0.1031762E-02 Eh
 * total energy  :   -42.1962136 Eh     change       -0.1064589E-02 Eh
 * total energy  :   -42.1967262 Eh     change       -0.5125154E-03 Eh
 * total energy  :   -42.1969386 Eh     change       -0.2124799E-03 Eh
   *** GEOMETRY OPTIMIZATION CONVERGED AFTER 29 ITERATIONS ***

 final structure:
================
25
 xtb: 6.6.1 (8d0f1dd)
C            4.38672643178593        0.56149881363380       -0.01701325267084
N            4.04640389700198       -0.63609026349503       -0.26142427205554
C            3.21932381898783       -1.58888671243939       -0.01501554651280
N            1.87375830132463       -1.44201620920234        0.07180165609132
C            1.22230596920826       -0.24309591147220        0.05192457287510
C           -0.12334643141777       -0.01956075657244        0.02475786681211
C           -0.64650879821609        1.36213650167364        0.01667385034127
O           -0.02309205814028        2.39815298468094        0.02571604911324
N           -2.02014700957328        1.22699992855897       -0.00430218003624
C           -2.95705368635019        2.31836342445234       -0.01755222974809
C           -2.39063023753784       -0.10587177720910       -0.01044237787192
O           -3.50309085048715       -0.55533327360982       -0.02927508180918
N           -1.21060626902603       -0.85564505547040        0.00891982871358
C           -1.24068702375747       -2.29221713310885       -0.00319895605639
H            4.20581902462302        1.04294956884188        0.94020198326620
H            4.96116059654197        1.09080331054557       -0.75678784007096
H            1.84278018647553        0.64475306817948        0.03827432871532
H            3.60202286983298       -2.60267465829627       -0.01673579997915
H           -2.39021978592983        3.24863131000528       -0.01155349564293
H           -3.58246725341307        2.26512462787719       -0.91073102050855
H           -3.60433062370127        2.26766514960252        0.86010811049965
H           -0.78071311946631       -2.70189183768283        0.89904719967706
H           -0.75310395915204       -2.68668344600134       -0.89815759796876
H           -2.29021682582881       -2.59098744660950       -0.02201824402785
H            1.31634435031567       -2.28788566528011        0.06795406675423

          :  Hamiltonian                  GFN2-xTB          :
         :: total energy             -42.196938638966 Eh    ::
         :: gradient norm              0.005662961790 Eh/a0 ::
         :: HOMO-LUMO gap              1.931636270244 eV    ::
         :: SCC energy               -42.745147249402 Eh    ::
         :: -> dispersion             -0.020635947620 Eh    ::
         :: repulsion energy           0.548211230484 Eh    ::

    * Orbital Energies and Occupations

         #    Occupation            Energy/Eh            Energy/eV
      -------------------------------------------------------------
         1        2.0000           -0.8770577             -23.8660
       ...           ...                  ...                  ...
        25        1.9987           -0.6680217             -18.1778
        26        1.9983           -0.6617347             -18.0067
        27        1.9981           -0.6590196             -17.9328
        28        1.9957           -0.6392626             -17.3952
        29        1.9950           -0.6357728             -17.3003
        30        1.9924           -0.6255204             -17.0213
        31        1.9895           -0.6178237             -16.8118
        32        1.9860           -0.6110349             -16.6271
        33        1.9670           -0.5903683             -16.0647
        34        1.9533           -0.5819994             -15.8370
        35        1.8951           -0.5620507             -15.2942
        36        1.8936           -0.5616793             -15.2841
        37        1.7163           -0.5360588             -14.5869 (HOMO)
        38        0.4669           -0.4650725             -12.6553 (LUMO)
        39        0.1333           -0.4306191             -11.7177
        40        0.0221           -0.3865402             -10.5183
        41        0.0025           -0.3345407              -9.1033
        42        0.0007           -0.3052699              -8.3068
        43        0.0000           -0.1791501              -4.8749
        44        0.0000           -0.1554200              -4.2292
        45        0.0000           -0.1225723              -3.3354
        46                         -0.0777217              -2.1149
        47                         -0.0682698              -1.8577
        48                         -0.0440113              -1.1976
       ...                                ...                  ...
        67                          0.5675198              15.4430
      -------------------------------------------------------------
                  HL-Gap            0.0709863 Eh            1.9316 eV

     #   Z          covCN         q      C6AA      α(0)
     1   6 C        2.770     0.009    27.810     8.637
     2   7 N        1.827    -0.034    22.608     7.046
     3   6 C        2.769     0.089    26.009     8.352
     4   7 N        2.688    -0.053    22.269     7.009
     5   6 C        2.838     0.003    27.943     8.663
     6   6 C        2.984     0.014    27.689     8.632
     7   6 C        2.850     0.260    22.638     7.798
     8   8 O        0.857    -0.335    20.430     6.060
     9   7 N        2.792    -0.068    22.550     7.053
    10   6 C        3.690    -0.056    21.779     6.679
    11   6 C        2.828     0.316    21.636     7.622
    12   8 O        0.857    -0.336    20.441     6.062
    13   7 N        2.785    -0.050    22.207     6.999
    14   6 C        3.689    -0.065    21.943     6.704
    15   1 H        0.925     0.114     1.662     2.016
    16   1 H        0.926     0.132     1.520     1.928
    17   1 H        0.925     0.107     1.723     2.053
    18   1 H        0.925     0.117     1.637     2.001
    19   1 H        0.925     0.115     1.654     2.011
    20   1 H        0.924     0.108     1.710     2.045
    21   1 H        0.924     0.108     1.711     2.046
    22   1 H        0.924     0.082     1.955     2.187
    23   1 H        0.924     0.082     1.957     2.188
    24   1 H        0.924     0.122     1.597     1.976
    25   1 H        0.860     0.218     1.019     1.582

Wiberg/Mayer (AO) data.
largest (>0.10) Wiberg bond orders for each atom

     #   Z sym  total        # sym  WBO       # sym  WBO       # sym  WBO
 ---------------------------------------------------------------------------
     1   6 C    3.646 --     2 N    1.691    16 H    0.938    15 H    0.923
     2   7 N    3.308 --     1 C    1.691     3 C    1.493
     3   6 C    3.783 --     2 N    1.493     4 N    1.225    18 H    0.933
     4   7 N    3.512 --     3 C    1.225     5 C    1.188    25 H    0.912
     5   6 C    3.779 --     6 C    1.471     4 N    1.188    17 H    0.942
     6   6 C    3.814 --     5 C    1.471    13 N    1.152     7 C    1.007
     7   6 C    3.892 --     8 O    1.675     9 N    1.118     6 C    1.007
     8   8 O    1.928 --     7 C    1.675     9 N    0.121
     9   7 N    3.485 --     7 C    1.118    11 C    1.091    10 C    0.988
                             8 O    0.121    12 O    0.105
    10   6 C    3.881 --     9 N    0.988    19 H    0.961    20 H    0.947
                            21 H    0.947
    11   6 C    3.922 --    12 O    1.683     9 N    1.091    13 N    1.065
    12   8 O    1.965 --    11 C    1.683    13 N    0.107     9 N    0.105
    13   7 N    3.443 --     6 C    1.152    11 C    1.065    14 C    0.995
                            12 O    0.107
    14   6 C    3.920 --    13 N    0.995    24 H    0.960    23 H    0.960
                            22 H    0.959
    15   1 H    0.960 --     1 C    0.923
    16   1 H    0.968 --     1 C    0.938
    17   1 H    0.986 --     5 C    0.942
    18   1 H    0.977 --     3 C    0.933
    19   1 H    0.975 --    10 C    0.961
    20   1 H    0.964 --    10 C    0.947
    21   1 H    0.964 --    10 C    0.947
    22   1 H    0.978 --    14 C    0.959
    23   1 H    0.978 --    14 C    0.960
    24   1 H    0.980 --    14 C    0.960
    25   1 H    0.950 --     4 N    0.912
 ---------------------------------------------------------------------------

molecular dipole:
                 x           y           z       tot (Debye)
 q only:        2.597      -1.368       0.042
   full:        2.576      -1.543       0.117       7.639

           -------------------------------------------------
          | TOTAL ENERGY              -42.196938638966 Eh   |
          | GRADIENT NORM               0.005662961790 Eh/α |
          | HOMO-LUMO GAP               1.931636270244 eV   |
           -------------------------------------------------

 * finished run on 2024/06/05 at 19:58:43.243
