   * xtb version 6.6.1 (8d0f1dd) compiled by 'conda@1efc2f54142f' on 2023-08-01
          program call               : xtb struc.xyz --opt loose --input .xc1 --gfn2

   ID    Z sym.   atoms
    1    6 C      1, 3, 5-7, 10, 11, 14
    2    7 N      2, 4, 9, 13
    3    8 O      8, 12
    4    1 H      15-25
constraining bond 10 12 to    5.7600000 Å, actual value:    2.6513323 Å

          :  Hamiltonian                  GFN2-xTB          :
 * total energy  :   -24.9928069 Eh     change       -0.6650680E-10 Eh
 * total energy  :   -30.6369174 Eh     change       -0.5644110E+01 Eh
 * total energy  :   -35.0570313 Eh     change       -0.4420114E+01 Eh
 * total energy  :   -38.2989513 Eh     change       -0.3241920E+01 Eh
 * total energy  :   -40.4239023 Eh     change       -0.2124951E+01 Eh
 * total energy  :   -41.4428625 Eh     change       -0.1018960E+01 Eh
 * total energy  :   -41.6419676 Eh     change       -0.1991051E+00 Eh
 * total energy  :   -41.6588974 Eh     change       -0.1692987E-01 Eh
 * total energy  :   -41.6776342 Eh     change       -0.1873677E-01 Eh
 * total energy  :   -41.7086783 Eh     change       -0.3104414E-01 Eh
 * total energy  :   -42.0303922 Eh     change       -0.1846609E-03 Eh
 * total energy  :   -42.0305435 Eh     change       -0.1512491E-03 Eh
 * total energy  :   -42.0305328 Eh     change        0.1062469E-04 Eh
 * total energy  :   -42.0307504 Eh     change       -0.2175451E-03 Eh
 * total energy  :   -42.0308294 Eh     change       -0.7898755E-04 Eh
 * total energy  :   -42.0309582 Eh     change       -0.1287846E-03 Eh
 * total energy  :   -42.0310245 Eh     change       -0.6633373E-04 Eh
 * total energy  :   -42.0310802 Eh     change       -0.5571825E-04 Eh
 * total energy  :   -42.0311235 Eh     change       -0.4325338E-04 Eh
   *** GEOMETRY OPTIMIZATION CONVERGED AFTER 68 ITERATIONS ***

 final structure:
================
25
 xtb: 6.6.1 (8d0f1dd)
C            3.41616440909537        1.25128335737783        0.05440317142016
N            2.46868181584492        0.16821909111359        0.03485818160203
C            2.74132797297450       -1.13222407617175        0.07332455508807
N            1.60007975572374       -1.84566871340487        0.04360113810655
C            0.55277210696570       -0.96338196974290       -0.01667045519966
C            1.10147581989976        0.31097783239358       -0.02004227814461
C            0.28320863267322        1.50086305574990       -0.05602482652799
O            0.66820366766731        2.64794429124311       -0.07521110759199
N           -1.09413245864159        1.14581389670675       -0.06130907550476
C           -2.03307014571242        2.26081573577313       -0.06811135874867
C           -1.61308779936823       -0.06315767181173       -0.06230686209941
O           -4.08491789966951       -3.11873504713154        0.08485127044282
N           -0.80267393661590       -1.18158942529885       -0.05455502361646
C           -1.35254031260998       -2.39688658837500       -0.08557993853490
H            3.93764194003358        1.28133485881632        1.01197394688782
H            4.15045274625167        1.12585667069220       -0.74099610380306
H            2.88027585648927        2.18921596108148       -0.08761664921497
H            3.72471722981665       -1.55807818515138        0.12248948048616
H           -1.46981168092611        3.19091156984471       -0.02773496682434
H           -2.63402326323360        2.23194167795214       -0.97501414520577
H           -2.69583947800925        2.18717613301078        0.79147031726052
H           -0.72300311187685       -3.26780887478023       -0.08519004089666
H           -2.43973670247499       -2.50650541164102       -0.08277694101129
H           -4.96759059731823       -2.78515629587700        0.25170232360714
H            1.54585694711751       -2.85492333076495        0.06163700591829

          :  Hamiltonian                  GFN2-xTB          :
         :: total energy             -42.031123466599 Eh    ::
         :: gradient norm              0.001709781141 Eh/a0 ::
         :: HOMO-LUMO gap              0.707765223939 eV    ::
         :: SCC energy               -42.542712246567 Eh    ::
         :: -> dispersion             -0.021403277488 Eh    ::
         :: repulsion energy           0.511539361553 Eh    ::

    * Orbital Energies and Occupations

         #    Occupation            Energy/Eh            Energy/eV
      -------------------------------------------------------------
         1        2.0000           -0.9237870             -25.1375
       ...           ...                  ...                  ...
        25        1.9999           -0.6583783             -17.9154
        26        1.9999           -0.6559495             -17.8493
        27        1.9998           -0.6412052             -17.4481
        28        1.9998           -0.6353327             -17.2883
        29        1.9996           -0.6267200             -17.0539
        30        1.9984           -0.6048592             -16.4591
        31        1.9980           -0.6007848             -16.3482
        32        1.9969           -0.5937215             -16.1560
        33        1.9943           -0.5841561             -15.8957
        34        1.9934           -0.5819134             -15.8347
        35        1.7737           -0.5240761             -14.2608
        36        1.6359           -0.5152607             -14.0210
        37        1.6087           -0.5138546             -13.9827 (HOMO)
        38        0.8860           -0.4878447             -13.2749 (LUMO)
        39        0.0943           -0.4438657             -12.0782
        40        0.0189           -0.4178491             -11.3703
        41        0.0025           -0.3857204             -10.4960
        42        0.0000           -0.2957819              -8.0486
        43                         -0.2097578              -5.7078
        44                         -0.1951982              -5.3116
        45                         -0.1448868              -3.9426
        46                         -0.1241797              -3.3791
        47                         -0.0666635              -1.8140
        48                         -0.0406565              -1.1063
       ...                                ...                  ...
        67                          0.5215101              14.1910
      -------------------------------------------------------------
                  HL-Gap            0.0260099 Eh            0.7078 eV

     #   Z          covCN         q      C6AA      α(0)
     1   6 C        3.691    -0.094    22.486     6.786
     2   7 N        2.832     0.078    19.879     6.622
     3   6 C        3.056     0.059    26.622     8.462
     4   7 N        2.792    -0.053    22.262     7.008
     5   6 C        3.062     0.088    25.975     8.358
     6   6 C        3.116    -0.002    27.915     8.655
     7   6 C        2.766     0.255    22.712     7.805
     8   8 O        0.857    -0.358    20.868     6.125
     9   7 N        2.745     0.021    20.880     6.787
    10   6 C        3.718    -0.079    22.136     6.721
    11   6 C        1.919    -0.067    32.916     9.265
    12   8 O        0.806    -0.513    24.102     6.581
    13   7 N        2.740     0.096    19.590     6.574
    14   6 C        2.812    -0.055    29.355     8.877
    15   1 H        0.924     0.110     1.697     2.037
    16   1 H        0.925     0.108     1.715     2.048
    17   1 H        0.925     0.137     1.484     1.905
    18   1 H        0.926     0.129     1.544     1.943
    19   1 H        0.925     0.115     1.658     2.014
    20   1 H        0.925     0.104     1.745     2.066
    21   1 H        0.925     0.104     1.748     2.067
    22   1 H        0.926     0.091     1.869     2.138
    23   1 H        0.924     0.200     1.096     1.637
    24   1 H        0.806     0.292     0.745     1.355
    25   1 H        0.860     0.233     0.951     1.528

Wiberg/Mayer (AO) data.
largest (>0.10) Wiberg bond orders for each atom

     #   Z sym  total        # sym  WBO       # sym  WBO       # sym  WBO
 ---------------------------------------------------------------------------
     1   6 C    3.912 --     2 N    0.984    16 H    0.961    17 H    0.961
                            15 H    0.956
     2   7 N    3.669 --     3 C    1.384     6 C    1.159     1 C    0.984
     3   6 C    3.858 --     2 N    1.384     4 N    1.303    18 H    0.951
     4   7 N    3.574 --     3 C    1.303     5 C    1.175    25 H    0.915
     5   6 C    3.879 --     6 C    1.367     4 N    1.175    13 N    1.118
     6   6 C    3.892 --     5 C    1.367     2 N    1.159     7 C    1.086
     7   6 C    3.885 --     8 O    1.680     6 C    1.086     9 N    1.025
     8   8 O    1.959 --     7 C    1.680     9 N    0.111
     9   7 N    3.651 --    11 C    1.465     7 C    1.025    10 C    0.970
                             8 O    0.111
    10   6 C    3.913 --     9 N    0.970    19 H    0.967    21 H    0.963
                            20 H    0.962
    11   6 C    2.782 --     9 N    1.465    13 N    1.125
    12   8 O    0.980 --    24 H    0.907
    13   7 N    3.699 --    14 C    1.335    11 C    1.125     5 C    1.118
    14   6 C    3.312 --    13 N    1.335    22 H    0.968    23 H    0.885
    15   1 H    0.984 --     1 C    0.956
    16   1 H    0.985 --     1 C    0.961
    17   1 H    0.981 --     1 C    0.961
    18   1 H    0.982 --     3 C    0.951
    19   1 H    0.985 --    10 C    0.967
    20   1 H    0.985 --    10 C    0.962
    21   1 H    0.985 --    10 C    0.963
    22   1 H    0.990 --    14 C    0.968
    23   1 H    0.958 --    14 C    0.885
    24   1 H    0.913 --    12 O    0.907
    25   1 H    0.945 --     4 N    0.915
 ---------------------------------------------------------------------------

molecular dipole:
                 x           y           z       tot (Debye)
 q only:        2.933      -0.660       0.097
   full:        3.303      -1.128       0.159       8.881

           -------------------------------------------------
          | TOTAL ENERGY              -42.031123466599 Eh   |
          | GRADIENT NORM               0.001709781141 Eh/α |
          | HOMO-LUMO GAP               0.707765223939 eV   |
           -------------------------------------------------

 * finished run on 2024/06/05 at 19:58:26.193
