   * xtb version 6.6.1 (8d0f1dd) compiled by 'conda@1efc2f54142f' on 2023-08-01
          program call               : xtb struc.xyz --opt loose --input .xc1 --gfn2

   ID    Z sym.   atoms
    1    7 N      1, 17
    2    6 C      2-6, 8, 9, 11-16, 18-23, 25, 26, 28-33
    3    8 O      7, 10, 24, 27
    4    1 H      34-72
constraining bond 26 59 to    3.7133300 Å, actual value:    2.7251232 Å

          :  Hamiltonian                  GFN2-xTB          :
 * total energy  :   -99.5784975 Eh     change       -0.4035485E-08 Eh
 * total energy  :   -99.8230792 Eh     change       -0.2445817E+00 Eh
 * total energy  :  -100.1217960 Eh     change       -0.2987168E+00 Eh
 * total energy  :  -100.4798875 Eh     change       -0.3580915E+00 Eh
 * total energy  :   -96.7011412 Eh     change        0.3778746E+01 Eh
 * total energy  :  -100.5272303 Eh     change       -0.3826089E+01 Eh
 * total energy  :  -100.5872778 Eh     change       -0.6004751E-01 Eh
 * total energy  :  -100.5907094 Eh     change       -0.3431574E-02 Eh
 * total energy  :  -100.6533101 Eh     change       -0.6260064E-01 Eh
 * total energy  :  -100.6467679 Eh     change        0.6542112E-02 Eh
 * total energy  :  -100.7806352 Eh     change       -0.1360502E-03 Eh
 * total energy  :  -100.7806533 Eh     change       -0.1808792E-04 Eh
 * total energy  :  -100.7792894 Eh     change        0.1363973E-02 Eh
 * total energy  :  -100.7808589 Eh     change       -0.1569507E-02 Eh
 * total energy  :  -100.7809341 Eh     change       -0.7524893E-04 Eh
 * total energy  :  -100.7810652 Eh     change       -0.1310479E-03 Eh
 * total energy  :  -100.7810653 Eh     change       -0.1863207E-06 Eh
 * total energy  :  -100.7812057 Eh     change       -0.1403462E-03 Eh
 * total energy  :  -100.7812531 Eh     change       -0.4742887E-04 Eh
   *** GEOMETRY OPTIMIZATION CONVERGED AFTER 50 ITERATIONS ***

 final structure:
================
72
 xtb: 6.6.1 (8d0f1dd)
N           -2.01662849333478        2.97406404778656        2.16421949368482
C           -1.94312153417528        2.23472401166855        1.16087739298880
C           -3.07610112356525        1.96788181210309        0.20866819681303
C           -3.49733554331787        0.51003224254721        0.31261088842759
C           -4.39826176603680       -0.01745020690599       -0.61480004847494
C           -4.83514389414828       -1.32911030984020       -0.53495427705505
O           -5.71238774578968       -1.91066120497528       -1.37817146919855
C           -6.34119980758739       -1.12861204749910       -2.36645125422466
C           -4.34744580710455       -2.16745645857931        0.50438404949547
O           -4.82143605398892       -3.42880720357201        0.50145981517873
C           -4.45855439129897       -4.30088412475474        1.54650484956135
C           -3.45229585232140       -1.63827504812905        1.42029507724375
C           -3.03662782469090       -0.31564452199946        1.32646842576866
C           -2.51884830609136        2.26253448183541       -1.20911522774357
C           -1.55620472619339        1.19168123648008       -1.75559448620889
C           -0.23039059343243        1.19882092027542       -1.09882196460689
N            0.43124639687797        0.12880128183047       -0.68591137918987
C            1.78188734111092        0.24134631691942       -0.18544201283616
C            2.81674281186722       -0.34430129801109       -1.16337030492709
C            4.20204005223691       -0.13672142747368       -0.61663487892855
C            5.04846984123284        0.81996140296240       -1.15797565867671
C            6.31363065775542        1.02868957127960       -0.64178369032515
C            6.75053637986748        0.27833554479283        0.44784056087745
O            7.95574823640317        0.40393169149816        1.03793553538179
C            8.88077095044661        1.34337904135563        0.54044066688912
C            5.91049498944975       -0.70026235745342        1.02541896437565
O            6.86572152507932       -2.80747455566589       -0.67137730864285
C            7.30523155170408       -3.84491018444454       -0.26728657285272
C            4.65425336495359       -0.88148362986844        0.46820880126916
C           -0.14891664627223       -1.19279888601461       -0.72121757212776
C           -4.32808492657445        2.85457583785122        0.48036980155540
C           -4.95509621276859        2.53617369337015        1.83566237922299
C           -4.03829791036332        4.34985776821291        0.38569372946129
H           -4.77611368087551        0.61371557146173       -1.40180632902589
H           -6.88568752861422       -0.28812304803569       -1.92559241866484
H           -7.04605544989828       -1.79441747400680       -2.86049405078909
H           -5.62231050439316       -0.75512178406703       -3.10304364905120
H           -4.75917297280728       -3.90505268811342        2.52103683383172
H           -4.99488029111755       -5.22765215430828        1.35238225193801
H           -3.38203421175775       -4.49962063717992        1.54853019144640
H           -3.07937609034341       -2.24507498767028        2.22938971754202
H           -2.36600261058213        0.06911437625386        2.07921216963912
H           -3.35505676173583        2.34770723536924       -1.90217718783606
H           -2.00708152567236        3.22549875349484       -1.19150568751727
H           -2.02839301318790        0.21243562209888       -1.70166049844796
H           -1.39496858468230        1.42807014444963       -2.81529169147345
H           -1.01325360389765        1.72827549588505        0.83756319157192
H            0.30129353637618        2.13889847990023       -1.06737451251086
H            1.85199002391742       -0.28293533393361        0.77219545292036
H            2.01553470015442        1.29423886760221       -0.01523731863273
H            2.71754957792345        0.15401767465261       -2.12881186402365
H            2.63059657573767       -1.41003132740876       -1.30488836262014
H            4.72356965733928        1.40605759642767       -2.00547926677560
H            6.95045423957059        1.77065808398507       -1.09570967225429
H            8.49132345734676        2.36356717537428        0.61235225984742
H            9.15231101785992        1.12705797613205       -0.49669209255315
H            9.76293337767723        1.25003332451915        1.17126950052924
H            8.28049360174252       -3.92448032706687        0.23889639191756
H            6.16442790497102       -1.12358206385276        1.63523648549015
H            6.76352000031703       -4.79992127300383       -0.37300448077831
H            4.01622285255318       -1.64413745674587        0.89397597556050
H           -0.29531324541437       -1.53014072161139       -1.74931212409591
H           -1.11352286304239       -1.20162843295990       -0.20686857749792
H            0.51704698534757       -1.89008893894941       -0.21974420224791
H           -5.05998290379964        2.60244044280769       -0.29547646730002
H           -4.26948852385830        2.80054117660159        2.63425158196201
H           -5.20238215260563        1.48049182226620        1.91703999419172
H           -5.86860232641091        3.11198620934691        1.95832041835880
H           -3.29263065185073        4.63713491590474        1.12048915723333
H           -3.69579202095989        4.63614666721303       -0.60514227441004
H           -4.95046481412389        4.90258319205907        0.59454764006834
H           -1.17858052014134        3.10553993003462        2.72173783488254

          :  Hamiltonian                  GFN2-xTB          :
         :: total energy            -100.781253121461 Eh    ::
         :: gradient norm              0.003035638739 Eh/a0 ::
         :: HOMO-LUMO gap              1.780105435643 eV    ::
         :: SCC energy              -100.788604238141 Eh    ::
         :: -> dispersion             -0.074483052595 Eh    ::
         :: repulsion energy           1.537597655794 Eh    ::

    * Orbital Energies and Occupations

         #    Occupation            Energy/Eh            Energy/eV
      -------------------------------------------------------------
         1        2.0000           -0.8100565             -22.0428
       ...           ...                  ...                  ...
        78        1.9981           -0.5288832             -14.3916
        79        1.9981           -0.5286350             -14.3849
        80        1.9973           -0.5235764             -14.2472
        81        1.9957           -0.5158431             -14.0368
        82        1.9949           -0.5132111             -13.9652
        83        1.9940           -0.5105076             -13.8916
        84        1.9926           -0.5072312             -13.8025
        85        1.9825           -0.4935993             -13.4315
        86        1.9803           -0.4916702             -13.3790
        87        1.9718           -0.4859227             -13.2226
        88        1.9347           -0.4723443             -12.8531
        89        1.8782           -0.4620095             -12.5719
        90        1.8674           -0.4605697             -12.5327 (HOMO)
        91        0.3688           -0.3951521             -10.7526 (LUMO)
        92        0.0322           -0.3535630              -9.6209
        93        0.0139           -0.3401373              -9.2556
        94        0.0034           -0.3178308              -8.6486
        95        0.0028           -0.3148459              -8.5674
        96        0.0025           -0.3131055              -8.5200
        97        0.0014           -0.3038253              -8.2675
        98        0.0000           -0.1922249              -5.2307
        99        0.0000           -0.1838891              -5.0039
       100                         -0.1367824              -3.7220
       101                         -0.0702582              -1.9118
       ...                                ...                  ...
       171                          1.2290157              33.4432
      -------------------------------------------------------------
                  HL-Gap            0.0654177 Eh            1.7801 eV

     #   Z          covCN         q      C6AA      α(0)
     1   7 N        1.774    -0.267    27.753     7.801
     2   6 C        2.827     0.101    25.747     8.315
     3   6 C        3.907     0.006    20.413     6.422
     4   6 C        2.974     0.002    27.976     8.676
     5   6 C        2.920    -0.080    30.003     8.982
     6   6 C        2.862     0.130    25.157     8.221
     7   8 O        1.706    -0.229    17.801     5.696
     8   6 C        3.644     0.027    20.453     6.500
     9   6 C        2.864     0.129    25.176     8.225
    10   8 O        1.706    -0.228    17.775     5.692
    11   6 C        3.645     0.027    20.462     6.501
    12   6 C        2.914    -0.075    29.861     8.961
    13   6 C        2.921    -0.053    29.323     8.880
    14   6 C        3.812    -0.065    21.732     6.635
    15   6 C        3.802    -0.070    21.833     6.653
    16   6 C        2.844     0.010    27.783     8.638
    17   7 N        2.729     0.017    20.956     6.799
    18   6 C        3.756    -0.017    20.939     6.524
    19   6 C        3.807    -0.071    21.850     6.654
    20   6 C        2.966     0.003    27.957     8.673
    21   6 C        2.925    -0.033    28.834     8.806
    22   6 C        2.911    -0.059    29.477     8.903
    23   6 C        2.868     0.155    24.642     8.137
    24   8 O        1.706    -0.237    17.920     5.715
    25   6 C        3.643     0.027    20.463     6.503
    26   6 C        2.913    -0.067    29.662     8.931
    27   8 O        0.856    -0.284    19.499     5.920
    28   6 C        2.701     0.179    24.155     8.044
    29   6 C        2.927    -0.035    28.879     8.813
    30   6 C        3.700    -0.072    22.043     6.714
    31   6 C        3.853    -0.007    20.673     6.467
    32   6 C        3.756    -0.119    22.829     6.813
    33   6 C        3.755    -0.119    22.835     6.814
    34   1 H        0.926     0.052     2.291     2.367
    35   1 H        0.924     0.054     2.269     2.356
    36   1 H        0.925     0.082     1.962     2.190
    37   1 H        0.924     0.048     2.347     2.396
    38   1 H        0.924     0.056     2.252     2.347
    39   1 H        0.925     0.082     1.962     2.190
    40   1 H        0.924     0.049     2.336     2.390
    41   1 H        0.926     0.053     2.288     2.365
    42   1 H        0.926     0.039     2.463     2.454
    43   1 H        0.925     0.061     2.184     2.311
    44   1 H        0.924     0.054     2.267     2.354
    45   1 H        0.925     0.067     2.118     2.276
    46   1 H        0.924     0.082     1.961     2.190
    47   1 H        0.922     0.005     2.966     2.694
    48   1 H        0.926     0.072     2.066     2.248
    49   1 H        0.924     0.070     2.083     2.257
    50   1 H        0.924     0.067     2.124     2.279
    51   1 H        0.924     0.054     2.268     2.355
    52   1 H        0.924     0.059     2.211     2.325
    53   1 H        0.926     0.045     2.384     2.415
    54   1 H        0.926     0.054     2.273     2.358
    55   1 H        0.924     0.052     2.295     2.369
    56   1 H        0.924     0.056     2.245     2.343
    57   1 H        0.925     0.077     2.007     2.215
    58   1 H        0.923     0.052     2.290     2.366
    59   1 H        0.930     0.103     1.754     2.071
    60   1 H        0.923     0.048     2.351     2.398
    61   1 H        0.925     0.038     2.477     2.461
    62   1 H        0.924     0.079     1.994     2.208
    63   1 H        0.924     0.080     1.981     2.201
    64   1 H        0.925     0.083     1.947     2.182
    65   1 H        0.924     0.038     2.483     2.464
    66   1 H        0.925     0.069     2.094     2.263
    67   1 H        0.925     0.035     2.510     2.478
    68   1 H        0.925     0.051     2.301     2.372
    69   1 H        0.925     0.061     2.184     2.311
    70   1 H        0.925     0.035     2.517     2.481
    71   1 H        0.925     0.055     2.259     2.350
    72   1 H        0.860     0.158     1.349     1.820

Wiberg/Mayer (AO) data.
largest (>0.10) Wiberg bond orders for each atom

     #   Z sym  total        # sym  WBO       # sym  WBO       # sym  WBO
 ---------------------------------------------------------------------------
     1   7 N    3.040 --     2 C    1.958    72 H    0.941
     2   6 C    3.931 --     1 N    1.958     3 C    0.994    47 H    0.901
     3   6 C    3.975 --     2 C    0.994     4 C    0.970    14 C    0.957
                            31 C    0.942
     4   6 C    3.948 --    13 C    1.413     5 C    1.368     3 C    0.970
     5   6 C    3.962 --     6 C    1.401     4 C    1.368    34 H    0.958
     6   6 C    3.905 --     5 C    1.401     9 C    1.221     7 O    1.100
     7   8 O    2.254 --     6 C    1.100     8 C    0.978
     8   6 C    3.931 --     7 O    0.978    36 H    0.977    35 H    0.974
                            37 H    0.973
     9   6 C    3.901 --    12 C    1.392     6 C    1.221    10 O    1.103
    10   8 O    2.253 --     9 C    1.103    11 C    0.977
    11   6 C    3.931 --    10 O    0.977    39 H    0.977    40 H    0.973
                            38 H    0.973
    12   6 C    3.962 --    13 C    1.403     9 C    1.392    41 H    0.964
    13   6 C    3.954 --     4 C    1.413    12 C    1.403    42 H    0.963
    14   6 C    3.972 --    15 C    0.980    44 H    0.972    43 H    0.968
                             3 C    0.957
    15   6 C    3.987 --    16 C    1.060    14 C    0.980    45 H    0.961
                            46 H    0.927
    16   6 C    3.612 --    17 N    1.420    15 C    1.060    48 H    0.956
    17   7 N    3.494 --    16 C    1.420    30 C    0.997    18 C    0.986
    18   6 C    3.953 --    17 N    0.986    19 C    0.969    50 H    0.969
                            49 H    0.960
    19   6 C    3.976 --    20 C    1.006    51 H    0.974    18 C    0.969
                            52 H    0.967
    20   6 C    3.934 --    21 C    1.402    29 C    1.382    19 C    1.006
    21   6 C    3.968 --    22 C    1.446    20 C    1.402    53 H    0.967
    22   6 C    3.948 --    21 C    1.446    23 C    1.351    54 H    0.963
    23   6 C    3.899 --    22 C    1.351    26 C    1.304    24 O    1.106
    24   8 O    2.245 --    23 C    1.106    25 C    0.977
    25   6 C    3.931 --    57 H    0.978    24 O    0.977    55 H    0.973
                            56 H    0.972
    26   6 C    3.944 --    29 C    1.478    23 C    1.304    59 H    0.972
    27   8 O    2.071 --    28 C    1.978
    28   6 C    3.860 --    27 O    1.978    58 H    0.939    60 H    0.939
    29   6 C    3.973 --    26 C    1.478    20 C    1.382    61 H    0.967
    30   6 C    3.956 --    17 N    0.997    64 H    0.977    62 H    0.966
                            63 H    0.960
    31   6 C    3.972 --    33 C    1.009    32 C    1.008    65 H    0.960
                             3 C    0.942
    32   6 C    3.978 --    31 C    1.008    67 H    0.982    68 H    0.981
                            66 H    0.974
    33   6 C    3.982 --    31 C    1.009    70 H    0.983    71 H    0.980
                            69 H    0.976
    34   1 H    0.996 --     5 C    0.958
    35   1 H    0.993 --     8 C    0.974
    36   1 H    0.993 --     8 C    0.977
    37   1 H    0.994 --     8 C    0.973
    38   1 H    0.993 --    11 C    0.973
    39   1 H    0.993 --    11 C    0.977
    40   1 H    0.993 --    11 C    0.973
    41   1 H    0.995 --    12 C    0.964
    42   1 H    0.998 --    13 C    0.963
    43   1 H    0.995 --    14 C    0.968
    44   1 H    0.996 --    14 C    0.972
    45   1 H    0.995 --    15 C    0.961
    46   1 H    0.971 --    15 C    0.927
    47   1 H    0.986 --     2 C    0.901
    48   1 H    0.994 --    16 C    0.956
    49   1 H    0.989 --    18 C    0.960
    50   1 H    0.995 --    18 C    0.969
    51   1 H    0.997 --    19 C    0.974
    52   1 H    0.994 --    19 C    0.967
    53   1 H    0.997 --    21 C    0.967
    54   1 H    0.995 --    22 C    0.963
    55   1 H    0.991 --    25 C    0.973
    56   1 H    0.991 --    25 C    0.972
    57   1 H    0.993 --    25 C    0.978
    58   1 H    0.988 --    28 C    0.939
    59   1 H    0.989 --    26 C    0.972
    60   1 H    0.989 --    28 C    0.939
    61   1 H    0.997 --    29 C    0.967
    62   1 H    0.985 --    30 C    0.966
    63   1 H    0.987 --    30 C    0.960
    64   1 H    0.993 --    30 C    0.977
    65   1 H    0.992 --    31 C    0.960
    66   1 H    0.991 --    32 C    0.974
    67   1 H    0.997 --    32 C    0.982
    68   1 H    0.994 --    32 C    0.981
    69   1 H    0.993 --    33 C    0.976
    70   1 H    0.997 --    33 C    0.983
    71   1 H    0.994 --    33 C    0.980
    72   1 H    0.970 --     1 N    0.941
 ---------------------------------------------------------------------------

molecular dipole:
                 x           y           z       tot (Debye)
 q only:        0.587      -0.059      -0.650
   full:        1.104      -0.243      -0.796       3.514

           -------------------------------------------------
          | TOTAL ENERGY             -100.781253121461 Eh   |
          | GRADIENT NORM               0.003035638739 Eh/α |
          | HOMO-LUMO GAP               1.780105435643 eV   |
           -------------------------------------------------

 * finished run on 2024/04/06 at 11:16:34.177
