   * xtb version 6.6.1 (8d0f1dd) compiled by 'conda@1efc2f54142f' on 2023-08-01
          program call               : xtb xtbopt.xyz --opt crude --input .xc2 --gfn2

   ID    Z sym.   atoms
    1    7 N      1, 17
    2    6 C      2-6, 8, 9, 11-16, 18-23, 25, 26, 28-33
    3    8 O      7, 10, 24, 27
    4    1 H      34-72

          :  Hamiltonian                  GFN2-xTB          :
 * total energy  :   -99.2496948 Eh     change        0.1563194E-12 Eh
 * total energy  :   -99.3559494 Eh     change       -0.1062546E+00 Eh
 * total energy  :   -99.3573495 Eh     change       -0.1400117E-02 Eh
 * total energy  :   -99.3578838 Eh     change       -0.5342698E-03 Eh
 * total energy  :   -99.3553180 Eh     change        0.2565828E-02 Eh
 * total energy  :   -99.3579857 Eh     change       -0.2667686E-02 Eh
 * total energy  :   -99.3580610 Eh     change       -0.7537893E-04 Eh
   *** GEOMETRY OPTIMIZATION CONVERGED AFTER 7 ITERATIONS ***

 final structure:
================
72
 xtb: 6.6.1 (8d0f1dd)
N           -2.02047889481460        2.97762788548622        2.16218411748949
C           -1.94629349675823        2.23775606519780        1.15929177016933
C           -3.07938632060475        1.97002947515371        0.20734371216875
C           -3.50120250477363        0.51249973967973        0.31340304472112
C           -4.40081090117299       -0.01671814230994       -0.61427550120068
C           -4.83547467481665       -1.32916374224042       -0.53436085223442
O           -5.71024318760111       -1.91287211354475       -1.37865051950804
C           -6.33720817720544       -1.13362345281953       -2.37013660963083
C           -4.34729628237776       -2.16619242764406        0.50575691850678
O           -4.81785016628040       -3.42886985002087        0.50232352599747
C           -4.45162798416915       -4.30039981173210        1.54663127153649
C           -3.45456446357990       -1.63484529487760        1.42280501948279
C           -3.04075242668403       -0.31170920174883        1.32858816629477
C           -2.52227701940944        2.26179465152214       -1.21109437120612
C           -1.55999134188126        1.18975504633062       -1.75601509441250
C           -0.23389957918193        1.19772089484067       -1.10006109323761
N            0.42713795220612        0.12802753526059       -0.68502649074231
C            1.77765734482023        0.24105587564072       -0.18463161638739
C            2.81402830878025       -0.33986769518208       -1.16388948495914
C            4.19831289472171       -0.13203519128917       -0.61430319552271
C            5.04828349491747        0.82220229332853       -1.15415228932856
C            6.31418398522159        1.03196988819862       -0.63807927822539
C            6.75363526894792        0.28524692677084        0.45496191639644
O            7.95696271724661        0.40870901355013        1.04568572758529
C            8.88753563032209        1.33597567276399        0.53269398331195
C            5.89469876011135       -0.67391428272216        1.00821234188858
O            6.80259162408642       -2.82752234434896       -0.72182842409316
C            7.30672207440643       -3.83221811912647       -0.30783321591972
C            4.64307736491753       -0.87818097758333        0.47561655366105
C           -0.15338040284994       -1.19344157196908       -0.71726687157200
C           -4.33069538161024        2.85815009080196        0.47764150434557
C           -4.95816465264662        2.54206615539173        1.83329287701064
C           -4.03952256152436        4.35302836455655        0.38044384926422
H           -4.77921993514073        0.61328796072842       -1.40195251493855
H           -6.88538236581804       -0.29388661960430       -1.93258242639146
H           -7.03856610566536       -1.80186249700847       -2.86582251616921
H           -5.61657933382416       -0.75932792773601       -3.10458085037487
H           -4.75247143884267       -3.90596493157548        2.52163099027846
H           -4.98534965421896       -5.22863618136054        1.35258315799301
H           -3.37452285565855       -4.49590947684101        1.54753050522606
H           -3.08173064675376       -2.24047306662586        2.23278703653005
H           -2.37141175726791        0.07463034107172        2.08165705573871
H           -3.35870993396103        2.34557485017170       -1.90404910938434
H           -2.01046720247139        3.22474927271585       -1.19562687438639
H           -2.03213857523518        0.21059530100582       -1.69987866417225
H           -1.39952834579045        1.42397632277941       -2.81629659008195
H           -1.01612945004703        1.73155653335047        0.83668426442676
H            0.29876485309057        2.13726401122268       -1.07031879669393
H            1.84844473969580       -0.28648111135491        0.77108301906025
H            2.00977899501457        1.29371969154568       -0.01072776341256
H            2.71448706619988        0.16049900780001       -2.12833120253907
H            2.63034612385590       -1.40575398784825       -1.30828585439768
H            4.72610687087297        1.40813643474281       -2.00302609528712
H            6.94965882894105        1.77332334938396       -1.09517702841945
H            8.50668642609174        2.36000012643023        0.59399197304325
H            9.15179640271947        1.10465780219578       -0.50316577229458
H            9.77185502809122        1.24337167438499        1.16044289063386
H            8.29805121564856       -3.85012848374639        0.17265121850680
H            6.24448551556059       -1.25029384198659        1.85029374991627
H            6.81186736650086       -4.81568768475498       -0.37349443611834
H            4.00512088694589       -1.63827513820068        0.90220675375760
H           -0.29691682501258       -1.53450449572976       -1.74437791190503
H           -1.11932107018040       -1.20009625776613       -0.20570179462068
H            0.51090380827201       -1.88894118398439       -0.21137207604405
H           -5.06275120225655        2.60540737161124       -0.29789306774558
H           -4.27120702809111        2.80376260498829        2.63157307932028
H           -5.20941001553466        1.48731903948306        1.91463291680281
H           -5.86937699613216        3.12134307824936        1.95652394497036
H           -3.29274968658378        4.64071187225331        1.11395652994000
H           -3.69781737043212        4.63738341175503       -0.61123425550878
H           -4.95086100728705        4.90704730097504        0.58943711632418
H           -1.18292672906522        3.11000369447351        2.72022284936923

          :  Hamiltonian                  GFN2-xTB          :
         :: total energy             -99.358061047248 Eh    ::
         :: gradient norm              0.002207236347 Eh/a0 ::
         :: HOMO-LUMO gap              1.779352859756 eV    ::
         :: SCC energy              -100.761941090961 Eh    ::
         :: -> dispersion             -0.074453832383 Eh    ::
         :: repulsion energy           1.402565399035 Eh    ::

    * Orbital Energies and Occupations

         #    Occupation            Energy/Eh            Energy/eV
      -------------------------------------------------------------
         1        2.0000           -0.8100574             -22.0428
       ...           ...                  ...                  ...
        78        1.9981           -0.5290076             -14.3950
        79        1.9981           -0.5286712             -14.3859
        80        1.9973           -0.5235647             -14.2469
        81        1.9957           -0.5158240             -14.0363
        82        1.9949           -0.5131771             -13.9643
        83        1.9940           -0.5104902             -13.8911
        84        1.9922           -0.5063963             -13.7797
        85        1.9823           -0.4933850             -13.4257
        86        1.9803           -0.4916564             -13.3787
        87        1.9714           -0.4857324             -13.2175
        88        1.9345           -0.4723018             -12.8520
        89        1.8793           -0.4621618             -12.5761
        90        1.8673           -0.4605549             -12.5323 (HOMO)
        91        0.3692           -0.3951648             -10.7530 (LUMO)
        92        0.0322           -0.3535647              -9.6210
        93        0.0139           -0.3401331              -9.2555
        94        0.0034           -0.3178138              -8.6482
        95        0.0028           -0.3148180              -8.5666
        96        0.0022           -0.3107343              -8.4555
        97        0.0014           -0.3038313              -8.2677
        98        0.0000           -0.1921899              -5.2298
        99        0.0000           -0.1813250              -4.9341
       100                         -0.1367195              -3.7203
       101                         -0.0702427              -1.9114
       ...                                ...                  ...
       171                          0.5779866              15.7278
      -------------------------------------------------------------
                  HL-Gap            0.0653900 Eh            1.7794 eV

     #   Z          covCN         q      C6AA      α(0)
     1   7 N        1.774    -0.267    27.752     7.801
     2   6 C        2.827     0.101    25.746     8.314
     3   6 C        3.907     0.006    20.413     6.422
     4   6 C        2.974     0.002    27.975     8.676
     5   6 C        2.920    -0.080    30.003     8.982
     6   6 C        2.862     0.130    25.157     8.221
     7   8 O        1.706    -0.229    17.800     5.696
     8   6 C        3.644     0.027    20.453     6.500
     9   6 C        2.864     0.129    25.177     8.225
    10   8 O        1.706    -0.228    17.775     5.692
    11   6 C        3.645     0.027    20.462     6.501
    12   6 C        2.914    -0.075    29.861     8.961
    13   6 C        2.921    -0.053    29.323     8.880
    14   6 C        3.812    -0.065    21.732     6.635
    15   6 C        3.802    -0.070    21.833     6.652
    16   6 C        2.843     0.010    27.783     8.638
    17   7 N        2.729     0.017    20.958     6.799
    18   6 C        3.756    -0.017    20.937     6.524
    19   6 C        3.807    -0.071    21.848     6.654
    20   6 C        2.970     0.004    27.927     8.668
    21   6 C        2.924    -0.034    28.845     8.808
    22   6 C        2.915    -0.059    29.460     8.900
    23   6 C        2.866     0.159    24.565     8.124
    24   8 O        1.706    -0.236    17.906     5.713
    25   6 C        3.644     0.027    20.460     6.502
    26   6 C        2.918    -0.040    29.002     8.831
    27   8 O        0.856    -0.285    19.506     5.921
    28   6 C        2.701     0.178    24.156     8.044
    29   6 C        2.923    -0.031    28.776     8.797
    30   6 C        3.700    -0.072    22.042     6.714
    31   6 C        3.853    -0.007    20.673     6.467
    32   6 C        3.756    -0.119    22.830     6.813
    33   6 C        3.755    -0.119    22.834     6.814
    34   1 H        0.926     0.052     2.291     2.367
    35   1 H        0.924     0.054     2.269     2.356
    36   1 H        0.925     0.082     1.962     2.190
    37   1 H        0.924     0.048     2.348     2.396
    38   1 H        0.924     0.056     2.252     2.347
    39   1 H        0.925     0.082     1.962     2.190
    40   1 H        0.924     0.049     2.336     2.390
    41   1 H        0.926     0.053     2.287     2.365
    42   1 H        0.926     0.039     2.462     2.454
    43   1 H        0.925     0.061     2.184     2.311
    44   1 H        0.924     0.054     2.266     2.354
    45   1 H        0.925     0.067     2.118     2.276
    46   1 H        0.924     0.082     1.961     2.190
    47   1 H        0.922     0.005     2.967     2.694
    48   1 H        0.926     0.072     2.066     2.248
    49   1 H        0.924     0.070     2.083     2.257
    50   1 H        0.924     0.066     2.126     2.280
    51   1 H        0.924     0.054     2.268     2.355
    52   1 H        0.924     0.059     2.206     2.323
    53   1 H        0.926     0.045     2.388     2.416
    54   1 H        0.926     0.054     2.276     2.359
    55   1 H        0.924     0.053     2.287     2.365
    56   1 H        0.924     0.056     2.242     2.341
    57   1 H        0.925     0.078     2.002     2.212
    58   1 H        0.923     0.053     2.289     2.366
    59   1 H        0.926     0.062     2.179     2.308
    60   1 H        0.923     0.048     2.339     2.392
    61   1 H        0.926     0.041     2.437     2.441
    62   1 H        0.924     0.079     1.993     2.208
    63   1 H        0.924     0.080     1.981     2.201
    64   1 H        0.925     0.083     1.948     2.182
    65   1 H        0.924     0.038     2.482     2.464
    66   1 H        0.925     0.069     2.093     2.263
    67   1 H        0.925     0.035     2.510     2.477
    68   1 H        0.925     0.052     2.301     2.372
    69   1 H        0.925     0.061     2.185     2.311
    70   1 H        0.925     0.035     2.517     2.481
    71   1 H        0.925     0.055     2.259     2.350
    72   1 H        0.860     0.158     1.349     1.820

Wiberg/Mayer (AO) data.
largest (>0.10) Wiberg bond orders for each atom

     #   Z sym  total        # sym  WBO       # sym  WBO       # sym  WBO
 ---------------------------------------------------------------------------
     1   7 N    3.040 --     2 C    1.958    72 H    0.941
     2   6 C    3.931 --     1 N    1.958     3 C    0.994    47 H    0.901
     3   6 C    3.975 --     2 C    0.994     4 C    0.970    14 C    0.957
                            31 C    0.942
     4   6 C    3.948 --    13 C    1.413     5 C    1.368     3 C    0.970
     5   6 C    3.962 --     6 C    1.401     4 C    1.368    34 H    0.958
     6   6 C    3.905 --     5 C    1.401     9 C    1.221     7 O    1.100
     7   8 O    2.254 --     6 C    1.100     8 C    0.978
     8   6 C    3.931 --     7 O    0.978    36 H    0.977    35 H    0.974
                            37 H    0.973
     9   6 C    3.901 --    12 C    1.391     6 C    1.221    10 O    1.103
    10   8 O    2.253 --     9 C    1.103    11 C    0.977
    11   6 C    3.931 --    10 O    0.977    39 H    0.977    40 H    0.973
                            38 H    0.973
    12   6 C    3.962 --    13 C    1.403     9 C    1.391    41 H    0.964
    13   6 C    3.954 --     4 C    1.413    12 C    1.403    42 H    0.963
    14   6 C    3.972 --    15 C    0.980    44 H    0.972    43 H    0.968
                             3 C    0.957
    15   6 C    3.987 --    16 C    1.060    14 C    0.980    45 H    0.961
                            46 H    0.927
    16   6 C    3.612 --    17 N    1.419    15 C    1.060    48 H    0.956
    17   7 N    3.494 --    16 C    1.419    30 C    0.997    18 C    0.986
    18   6 C    3.953 --    17 N    0.986    19 C    0.969    50 H    0.969
                            49 H    0.960
    19   6 C    3.976 --    20 C    1.006    51 H    0.974    18 C    0.969
                            52 H    0.966
    20   6 C    3.933 --    21 C    1.406    29 C    1.374    19 C    1.006
    21   6 C    3.968 --    22 C    1.446    20 C    1.406    53 H    0.967
    22   6 C    3.948 --    21 C    1.446    23 C    1.346    54 H    0.964
    23   6 C    3.901 --    22 C    1.346    26 C    1.311    24 O    1.106
    24   8 O    2.245 --    23 C    1.106    25 C    0.976
    25   6 C    3.930 --    57 H    0.978    24 O    0.976    55 H    0.973
                            56 H    0.973
    26   6 C    3.945 --    29 C    1.484    23 C    1.311    59 H    0.966
    27   8 O    2.070 --    28 C    1.978
    28   6 C    3.860 --    27 O    1.978    58 H    0.939    60 H    0.939
    29   6 C    3.973 --    26 C    1.484    20 C    1.374    61 H    0.967
    30   6 C    3.956 --    17 N    0.997    64 H    0.977    62 H    0.966
                            63 H    0.960
    31   6 C    3.972 --    33 C    1.009    32 C    1.008    65 H    0.960
                             3 C    0.942
    32   6 C    3.978 --    31 C    1.008    67 H    0.982    68 H    0.981
                            66 H    0.974
    33   6 C    3.982 --    31 C    1.009    70 H    0.983    71 H    0.980
                            69 H    0.976
    34   1 H    0.996 --     5 C    0.958
    35   1 H    0.993 --     8 C    0.974
    36   1 H    0.993 --     8 C    0.977
    37   1 H    0.994 --     8 C    0.973
    38   1 H    0.993 --    11 C    0.973
    39   1 H    0.993 --    11 C    0.977
    40   1 H    0.993 --    11 C    0.973
    41   1 H    0.995 --    12 C    0.964
    42   1 H    0.998 --    13 C    0.963
    43   1 H    0.995 --    14 C    0.968
    44   1 H    0.996 --    14 C    0.972
    45   1 H    0.995 --    15 C    0.961
    46   1 H    0.971 --    15 C    0.927
    47   1 H    0.986 --     2 C    0.901
    48   1 H    0.994 --    16 C    0.956
    49   1 H    0.989 --    18 C    0.960
    50   1 H    0.995 --    18 C    0.969
    51   1 H    0.996 --    19 C    0.974
    52   1 H    0.994 --    19 C    0.966
    53   1 H    0.997 --    21 C    0.967
    54   1 H    0.995 --    22 C    0.964
    55   1 H    0.991 --    25 C    0.973
    56   1 H    0.991 --    25 C    0.973
    57   1 H    0.993 --    25 C    0.978
    58   1 H    0.988 --    28 C    0.939
    59   1 H    0.994 --    26 C    0.966
    60   1 H    0.989 --    28 C    0.939
    61   1 H    0.996 --    29 C    0.967
    62   1 H    0.985 --    30 C    0.966
    63   1 H    0.987 --    30 C    0.960
    64   1 H    0.993 --    30 C    0.977
    65   1 H    0.992 --    31 C    0.960
    66   1 H    0.991 --    32 C    0.974
    67   1 H    0.997 --    32 C    0.982
    68   1 H    0.994 --    32 C    0.981
    69   1 H    0.993 --    33 C    0.976
    70   1 H    0.997 --    33 C    0.983
    71   1 H    0.994 --    33 C    0.980
    72   1 H    0.970 --     1 N    0.941
 ---------------------------------------------------------------------------

molecular dipole:
                 x           y           z       tot (Debye)
 q only:        0.609      -0.025      -0.686
   full:        1.140      -0.221      -0.807       3.595

           -------------------------------------------------
          | TOTAL ENERGY              -99.358061047248 Eh   |
          | GRADIENT NORM               0.002207236347 Eh/α |
          | HOMO-LUMO GAP               1.779352859756 eV   |
           -------------------------------------------------

 * finished run on 2024/04/06 at 11:16:35.602
