   * xtb version 6.6.1 (8d0f1dd) compiled by 'conda@1efc2f54142f' on 2023-08-01
          program call               : xtb xtbopt.xyz --opt crude --input .xc2 --gfn2

   ID    Z sym.   atoms
    1    6 C      1, 3, 5-7, 10, 11, 14
    2    7 N      2, 4, 9, 13
    3    8 O      8, 12
    4    1 H      15-25

          :  Hamiltonian                  GFN2-xTB          :
 * total energy  :   -42.1450701 Eh     change       -0.2842171E-13 Eh
   *** GEOMETRY OPTIMIZATION CONVERGED AFTER 1 ITERATIONS ***

 final structure:
================
25
 xtb: 6.6.1 (8d0f1dd)
C            3.76164253436289        0.88691379045995        0.04425781093791
N            2.79125846643864       -0.16993711355811        0.00531187886385
C            3.02731238813920       -1.46511330886842       -0.07928550493939
N            1.88748525895085       -2.16431259822337       -0.06036071274001
C            0.77590659425631       -1.29353931385401        0.03940637188510
C            1.40416542471894        0.03308318558079        0.09459416450876
C            0.76568468555636        1.18735843827049        0.22469892339410
O            0.10367864278657        2.13301671085456        0.31876938509440
N           -3.26845271809583        1.52734548610117       -0.27645801953121
C           -3.36272035737361        2.92263979082796       -0.15358249723944
C           -3.49841903284487        0.41725392086059        0.06857534236880
O           -3.62555151733878       -0.72129016330083        0.24102060528628
N           -0.45322283704338       -1.53669038567690        0.06779060884436
C           -1.08027202989180       -2.81387738929567        0.01848964473876
H            3.84811253360591        1.29102548283663        1.05619513430358
H            4.73200432103015        0.50628490273308       -0.26765416969650
H            3.46048257952591        1.69434686227213       -0.62432368925646
H            4.00680706892216       -1.89983322866592       -0.15742342778047
H           -2.35396752887813        3.33223685276806       -0.07389158821814
H           -3.83708101120085        3.32603604686426       -1.05030161972146
H           -3.94368991614904        3.21170420917799        0.72440926565134
H           -0.62969073511813       -3.53636514030363        0.70575046512057
H           -1.04293195566141       -3.21882671777728       -0.99623700288138
H           -2.12517220998578       -2.66304700161963        0.28696025114099
H            1.81706286538501       -3.16817477683990       -0.12554000223749

          :  Hamiltonian                  GFN2-xTB          :
         :: total energy             -42.145070133109 Eh    ::
         :: gradient norm              0.003965969218 Eh/a0 ::
         :: HOMO-LUMO gap              2.254674487560 eV    ::
         :: SCC energy               -42.766915596834 Eh    ::
         :: -> dispersion             -0.018366414517 Eh    ::
         :: repulsion energy           0.621799442878 Eh    ::

    * Orbital Energies and Occupations

         #    Occupation            Energy/Eh            Energy/eV
      -------------------------------------------------------------
         1        2.0000           -0.9088026             -24.7298
       ...           ...                  ...                  ...
        25        2.0000           -0.6494136             -17.6714
        26        2.0000           -0.6426419             -17.4872
        27        2.0000           -0.6409068             -17.4400
        28        1.9999           -0.6398304             -17.4107
        29        1.9997           -0.6145909             -16.7239
        30        1.9997           -0.6128243             -16.6758
        31        1.9997           -0.6119561             -16.6522
        32        1.9994           -0.6016607             -16.3720
        33        1.9991           -0.5943838             -16.1740
        34        1.9360           -0.5270204             -14.3410
        35        1.9299           -0.5255482             -14.3009
        36        1.9143           -0.5222228             -14.2104
        37        1.8903           -0.5181152             -14.0986 (HOMO)
        38        0.1684           -0.4352574             -11.8440 (LUMO)
        39        0.1606           -0.4344331             -11.8215
        40        0.0031           -0.3705340             -10.0827
        41        0.0000           -0.2885812              -7.8527
        42        0.0000           -0.2883365              -7.8460
        43        0.0000           -0.2698178              -7.3421
        44                         -0.1797702              -4.8918
        45                         -0.1460771              -3.9750
        46                         -0.0861701              -2.3448
        47                         -0.0650256              -1.7694
        48                         -0.0509010              -1.3851
       ...                                ...                  ...
        67                          1.2518972              34.0659
      -------------------------------------------------------------
                  HL-Gap            0.0828578 Eh            2.2547 eV

     #   Z          covCN         q      C6AA      α(0)
     1   6 C        3.691    -0.084    22.289     6.756
     2   7 N        2.800     0.060    20.201     6.675
     3   6 C        2.958     0.078    26.249     8.403
     4   7 N        2.770    -0.092    23.029     7.127
     5   6 C        2.923     0.154    24.660     8.144
     6   6 C        3.042    -0.021    28.479     8.753
     7   6 C        1.844     0.249    25.384     8.139
     8   8 O        0.856    -0.130    16.966     5.522
     9   7 N        1.820    -0.141    24.826     7.383
    10   6 C        3.685    -0.033    21.368     6.618
    11   6 C        1.769     0.311    24.243     7.960
    12   8 O        0.856    -0.256    19.007     5.845
    13   7 N        1.824    -0.206    26.315     7.601
    14   6 C        3.698    -0.042    21.488     6.630
    15   1 H        0.924     0.102     1.769     2.080
    16   1 H        0.925     0.103     1.762     2.076
    17   1 H        0.924     0.100     1.785     2.089
    18   1 H        0.926     0.114     1.665     2.018
    19   1 H        0.924     0.094     1.842     2.123
    20   1 H        0.924     0.096     1.822     2.111
    21   1 H        0.924     0.084     1.939     2.178
    22   1 H        0.924     0.057     2.238     2.339
    23   1 H        0.924     0.075     2.031     2.229
    24   1 H        0.925     0.109     1.705     2.042
    25   1 H        0.860     0.219     1.014     1.577

Wiberg/Mayer (AO) data.
largest (>0.10) Wiberg bond orders for each atom

     #   Z sym  total        # sym  WBO       # sym  WBO       # sym  WBO
 ---------------------------------------------------------------------------
     1   6 C    3.934 --     2 N    0.994    16 H    0.973    17 H    0.967
                            15 H    0.960
     2   7 N    3.618 --     3 C    1.400     6 C    1.046     1 C    0.994
                             4 N    0.111
     3   6 C    3.837 --     2 N    1.400     4 N    1.317    18 H    0.949
     4   7 N    3.534 --     3 C    1.317     5 C    1.030    25 H    0.923
                             2 N    0.111    13 N    0.100
     5   6 C    3.926 --    13 N    1.715     6 C    1.033     4 N    1.030
     6   6 C    3.873 --     7 C    1.484     2 N    1.046     5 C    1.033
                             8 O    0.152
     7   6 C    3.693 --     8 O    2.066     6 C    1.484
     8   8 O    2.341 --     7 C    2.066     6 C    0.152
     9   7 N    3.362 --    11 C    1.987    10 C    1.026    12 O    0.348
    10   6 C    3.921 --     9 N    1.026    21 H    0.954    19 H    0.952
                            20 H    0.952
    11   6 C    3.937 --     9 N    1.987    12 O    1.881
    12   8 O    2.271 --    11 C    1.881     9 N    0.348
    13   7 N    3.024 --     5 C    1.715    14 C    1.031     4 N    0.100
    14   6 C    3.938 --    13 N    1.031    24 H    0.958    22 H    0.957
                            23 H    0.947
    15   1 H    0.986 --     1 C    0.960
    16   1 H    0.989 --     1 C    0.973
    17   1 H    0.988 --     1 C    0.967
    18   1 H    0.984 --     3 C    0.949
    19   1 H    0.976 --    10 C    0.952
    20   1 H    0.975 --    10 C    0.952
    21   1 H    0.978 --    10 C    0.954
    22   1 H    0.980 --    14 C    0.957
    23   1 H    0.978 --    14 C    0.947
    24   1 H    0.973 --    14 C    0.958
    25   1 H    0.950 --     4 N    0.923
 ---------------------------------------------------------------------------

molecular dipole:
                 x           y           z       tot (Debye)
 q only:        2.921      -0.252      -0.141
   full:        3.288      -0.629      -0.101       8.512

           -------------------------------------------------
          | TOTAL ENERGY              -42.145070133109 Eh   |
          | GRADIENT NORM               0.003965969218 Eh/α |
          | HOMO-LUMO GAP               2.254674487560 eV   |
           -------------------------------------------------

 * finished run on 2024/06/05 at 19:57:57.464
