   * xtb version 6.6.1 (8d0f1dd) compiled by 'conda@1efc2f54142f' on 2023-08-01
          program call               : xtb struc.xyz --opt loose --input .xc1 --gfn2

   ID    Z sym.   atoms
    1    6 C      1, 3, 5-7, 10, 11, 14
    2    7 N      2, 4, 9, 13
    3    8 O      8, 12
    4    1 H      15-25
constraining bond 11 12 to    3.7600000 Å, actual value:    1.1960413 Å

          :  Hamiltonian                  GFN2-xTB          :
 * total energy  :   -30.5099774 Eh     change       -0.6650680E-10 Eh
 * total energy  :   -34.6688755 Eh     change       -0.4158898E+01 Eh
 * total energy  :   -38.1765837 Eh     change       -0.3507708E+01 Eh
 * total energy  :   -40.4284041 Eh     change       -0.2251820E+01 Eh
 * total energy  :   -41.4445320 Eh     change       -0.1016128E+01 Eh
 * total energy  :   -41.6568650 Eh     change       -0.2123329E+00 Eh
 * total energy  :   -41.6701372 Eh     change       -0.1327221E-01 Eh
 * total energy  :   -41.6881445 Eh     change       -0.1800731E-01 Eh
 * total energy  :   -41.7186271 Eh     change       -0.3048255E-01 Eh
 * total energy  :   -41.7547361 Eh     change       -0.3610906E-01 Eh
 * total energy  :   -42.1654957 Eh     change       -0.1604029E-02 Eh
 * total energy  :   -42.1667336 Eh     change       -0.1237883E-02 Eh
 * total energy  :   -42.1676005 Eh     change       -0.8669017E-03 Eh
 * total energy  :   -42.1682841 Eh     change       -0.6835676E-03 Eh
 * total energy  :   -42.1686370 Eh     change       -0.3529512E-03 Eh
 * total energy  :   -42.1689358 Eh     change       -0.2987529E-03 Eh
 * total energy  :   -42.1690799 Eh     change       -0.1441224E-03 Eh
 * total energy  :   -42.1691526 Eh     change       -0.7273918E-04 Eh
 * total energy  :   -42.1691897 Eh     change       -0.3705589E-04 Eh
   *** GEOMETRY OPTIMIZATION CONVERGED AFTER 100 ITERATIONS ***

 final structure:
================
25
 xtb: 6.6.1 (8d0f1dd)
C            3.22888314424252        0.96598951604445        0.37699075578724
N            2.16345794414856        0.00112319789467        0.32230919651127
C            2.26958960954882       -1.31690963533374        0.46728211335269
N            1.05882400533541       -1.89358315494201        0.32320863656047
C            0.15052007600856       -0.90785077503054        0.07646313541916
C            0.84289067734609        0.29328643621955        0.07399200121975
C            0.17079354222784        1.55022032811459       -0.15729641726182
O            0.66323114194269        2.65277535996016       -0.16378568214067
N           -1.20859630091697        1.33048443245085       -0.39799975208350
C           -1.97296267098480        2.53986970452769       -0.65499845710254
C           -1.87530094047649        0.18975043570434       -0.41570908500562
O           -1.19085558866499       -3.37841047139882        0.49547212056934
N           -1.18523501694192       -0.98672650858088       -0.13384456254198
C           -1.79956775134532       -2.34644110541631       -0.26033257509512
H            3.89888701331583        0.74168628961203        1.20506949352771
H            3.79945447738778        0.95141395725122       -0.55346404381597
H            2.79885324167665        1.95908058804581        0.50269046879638
H            3.17860791923580       -1.84634628455812        0.67192582882047
H           -1.42653899383467        3.16937192560087       -1.35740542065313
H           -2.94397423124232        2.26505152528635       -1.05651151411202
H           -2.10145091099146        3.09969417412314        0.27313213042811
H           -1.69316560806393       -2.64399946332368       -1.30969754740320
H           -2.86038486554882       -2.22556966584270       -0.03417527841190
H           -1.61866783098591       -3.46754503885818        1.35431796210488
H            0.81313943164432       -2.87817722587806        0.38353811035206

          :  Hamiltonian                  GFN2-xTB          :
         :: total energy             -42.169189685431 Eh    ::
         :: gradient norm              0.002896035031 Eh/a0 ::
         :: HOMO-LUMO gap              2.261221496365 eV    ::
         :: SCC energy               -42.667648298115 Eh    ::
         :: -> dispersion             -0.022368893065 Eh    ::
         :: repulsion energy           0.497988804867 Eh    ::

    * Orbital Energies and Occupations

         #    Occupation            Energy/Eh            Energy/eV
      -------------------------------------------------------------
         1        2.0000           -0.9033794             -24.5822
       ...           ...                  ...                  ...
        25        2.0000           -0.6634715             -18.0540
        26        2.0000           -0.6537629             -17.7898
        27        2.0000           -0.6442319             -17.5304
        28        1.9999           -0.6387642             -17.3817
        29        1.9999           -0.6308258             -17.1656
        30        1.9997           -0.6125661             -16.6688
        31        1.9997           -0.6110801             -16.6283
        32        1.9995           -0.6009280             -16.3521
        33        1.9991           -0.5934276             -16.1480
        34        1.9977           -0.5783298             -15.7372
        35        1.9955           -0.5675949             -15.4450
        36        1.9880           -0.5520733             -15.0227
        37        1.8602           -0.5120925             -13.9347 (HOMO)
        38        0.1308           -0.4289942             -11.6735 (LUMO)
        39        0.0210           -0.3991398             -10.8611
        40        0.0089           -0.3854317             -10.4881
        41        0.0000           -0.2829758              -7.7002
        42        0.0000           -0.2129706              -5.7952
        43                         -0.1879676              -5.1149
        44                         -0.1504408              -4.0937
        45                         -0.1263242              -3.4375
        46                         -0.1041961              -2.8353
        47                         -0.0699002              -1.9021
        48                         -0.0252077              -0.6859
       ...                                ...                  ...
        67                          0.5442774              14.8105
      -------------------------------------------------------------
                  HL-Gap            0.0830984 Eh            2.2612 eV

     #   Z          covCN         q      C6AA      α(0)
     1   6 C        3.691    -0.088    22.382     6.770
     2   7 N        2.834     0.071    20.011     6.644
     3   6 C        3.059     0.055    26.720     8.477
     4   7 N        2.794    -0.066    22.517     7.048
     5   6 C        3.054     0.117    25.373     8.261
     6   6 C        3.118    -0.014    28.199     8.698
     7   6 C        2.770     0.260    22.618     7.789
     8   8 O        0.857    -0.368    21.047     6.151
     9   7 N        2.747     0.011    21.060     6.816
    10   6 C        3.721    -0.070    21.958     6.692
    11   6 C        1.883    -0.086    33.493     9.347
    12   8 O        1.654    -0.419    21.227     6.220
    13   7 N        2.736    -0.033    21.879     6.947
    14   6 C        3.612     0.115    19.167     6.320
    15   1 H        0.925     0.101     1.779     2.086
    16   1 H        0.924     0.106     1.727     2.055
    17   1 H        0.925     0.131     1.530     1.934
    18   1 H        0.926     0.120     1.611     1.985
    19   1 H        0.925     0.102     1.771     2.081
    20   1 H        0.925     0.101     1.773     2.082
    21   1 H        0.924     0.096     1.826     2.113
    22   1 H        0.924     0.094     1.839     2.121
    23   1 H        0.924     0.093     1.850     2.127
    24   1 H        0.805     0.322     0.658     1.274
    25   1 H        0.860     0.251     0.881     1.470

Wiberg/Mayer (AO) data.
largest (>0.10) Wiberg bond orders for each atom

     #   Z sym  total        # sym  WBO       # sym  WBO       # sym  WBO
 ---------------------------------------------------------------------------
     1   6 C    3.920 --     2 N    0.987    15 H    0.967    17 H    0.963
                            16 H    0.955
     2   7 N    3.667 --     3 C    1.379     6 C    1.156     1 C    0.987
     3   6 C    3.846 --     2 N    1.379     4 N    1.288    18 H    0.953
     4   7 N    3.587 --     3 C    1.288     5 C    1.195    25 H    0.893
     5   6 C    3.943 --     6 C    1.356     4 N    1.195    13 N    1.195
     6   6 C    3.920 --     5 C    1.356     2 N    1.156     7 C    1.088
     7   6 C    3.927 --     8 O    1.699     6 C    1.088     9 N    1.035
     8   8 O    2.024 --     7 C    1.699     9 N    0.122
     9   7 N    3.659 --    11 C    1.434     7 C    1.035    10 C    0.977
                             8 O    0.122
    10   6 C    3.928 --     9 N    0.977    20 H    0.975    19 H    0.966
                            21 H    0.962
    11   6 C    2.847 --     9 N    1.434    13 N    1.206
    12   8 O    2.013 --    14 C    1.030    24 H    0.884
    13   7 N    3.580 --    11 C    1.206     5 C    1.195    14 C    0.936
    14   6 C    3.923 --    12 O    1.030    23 H    0.965    22 H    0.955
                            13 N    0.936
    15   1 H    0.988 --     1 C    0.967
    16   1 H    0.985 --     1 C    0.955
    17   1 H    0.982 --     1 C    0.963
    18   1 H    0.984 --     3 C    0.953
    19   1 H    0.988 --    10 C    0.966
    20   1 H    0.989 --    10 C    0.975
    21   1 H    0.988 --    10 C    0.962
    22   1 H    0.988 --    14 C    0.955
    23   1 H    0.990 --    14 C    0.965
    24   1 H    0.896 --    12 O    0.884
    25   1 H    0.937 --     4 N    0.893
 ---------------------------------------------------------------------------

molecular dipole:
                 x           y           z       tot (Debye)
 q only:        0.951      -1.799       0.493
   full:        1.307      -2.213       0.753       6.808

           -------------------------------------------------
          | TOTAL ENERGY              -42.169189685431 Eh   |
          | GRADIENT NORM               0.002896035031 Eh/α |
          | HOMO-LUMO GAP               2.261221496365 eV   |
           -------------------------------------------------

 * finished run on 2024/06/05 at 19:58:02.830
