   * xtb version 6.6.1 (8d0f1dd) compiled by 'conda@1efc2f54142f' on 2023-08-01
          program call               : xtb struc.xyz --opt loose --input .xc1 --gfn2

   ID    Z sym.   atoms
    1    6 C      1, 3, 5-7, 10, 11, 14
    2    7 N      2, 4, 9, 13
    3    8 O      8, 12
    4    1 H      15-25
constraining bond 10 11 to    5.0000000 Å, actual value:    2.3893559 Å

          :  Hamiltonian                  GFN2-xTB          :
 * total energy  :   -30.0760563 Eh     change       -0.6633627E-10 Eh
 * total energy  :   -34.4314455 Eh     change       -0.4355389E+01 Eh
 * total energy  :   -37.8291563 Eh     change       -0.3397711E+01 Eh
 * total energy  :   -40.0187581 Eh     change       -0.2189602E+01 Eh
 * total energy  :   -41.1941739 Eh     change       -0.1175416E+01 Eh
 * total energy  :   -41.5228000 Eh     change       -0.3286261E+00 Eh
 * total energy  :   -41.5706267 Eh     change       -0.4782673E-01 Eh
 * total energy  :   -41.5964280 Eh     change       -0.2580126E-01 Eh
 * total energy  :   -41.6174740 Eh     change       -0.2104596E-01 Eh
 * total energy  :   -41.6501011 Eh     change       -0.3262714E-01 Eh
 * total energy  :   -42.1914347 Eh     change       -0.1450745E-03 Eh
 * total energy  :   -42.1915388 Eh     change       -0.1041342E-03 Eh
 * total energy  :   -42.1916505 Eh     change       -0.1117434E-03 Eh
 * total energy  :   -42.1917134 Eh     change       -0.6281737E-04 Eh
 * total energy  :   -42.1917636 Eh     change       -0.5026419E-04 Eh
 * total energy  :   -42.1918060 Eh     change       -0.4236607E-04 Eh
 * total energy  :   -42.1918182 Eh     change       -0.1221669E-04 Eh
 * total energy  :   -42.1918588 Eh     change       -0.4061437E-04 Eh
 * total energy  :   -42.1918833 Eh     change       -0.2452168E-04 Eh
   *** GEOMETRY OPTIMIZATION CONVERGED AFTER 113 ITERATIONS ***

 final structure:
================
25
 xtb: 6.6.1 (8d0f1dd)
C            2.35013105731101        1.45531366242915       -0.44360300433248
N            1.70844565396816        0.18256895840113       -0.27762844280361
C            2.29877703176226       -0.99971083241688       -0.31166451188212
N            1.38341548744367       -1.96856071003714       -0.10991746964460
C            0.16724158289339       -1.37322388525677        0.05978550091097
C            0.36830094821306       -0.00661876330020       -0.04780595132109
C           -0.70348133850080        0.97534096593684        0.07964135143039
O           -1.93478301604637        0.19860600154712        0.31587573129212
N           -0.42988980772195        2.18319040801851       -0.01677403194025
C           -0.78417007855070        3.59929597573216       -0.03216015583040
C           -2.15879554130279       -1.16611908217664        0.42188313044714
O           -3.24211873107024       -1.59618625983916        0.61525827398776
N           -1.01749778258524       -1.97580630677859        0.28729627015663
C           -1.14946159351549       -3.41503890135010        0.39524579893244
H            2.21440218300323        2.05443070859164        0.45613849933844
H            3.41092451781644        1.31039420183826       -0.63512773014362
H            1.89144997871582        1.99287333989119       -1.27265720492236
H            3.34450994423868       -1.17380918235398       -0.47372520374082
H            0.01424684475216        4.11028523025653        0.49872266633336
H           -0.78020776614865        3.90153154519255       -1.07811307058343
H           -1.75661910743241        3.81658039258404        0.40931899271483
H           -0.50183572139111       -3.80312621709470        1.18436587182440
H           -0.91503140087417       -3.89408309620862       -0.55733176382300
H           -2.18632611402440       -3.62850164308615        0.65201482016845
H            1.56880428308512       -2.96138796888282       -0.08786674862988

          :  Hamiltonian                  GFN2-xTB          :
         :: total energy             -42.191883343962 Eh    ::
         :: gradient norm              0.003677738934 Eh/a0 ::
         :: HOMO-LUMO gap              2.338449269585 eV    ::
         :: SCC energy               -42.718553419730 Eh    ::
         :: -> dispersion             -0.021784755200 Eh    ::
         :: repulsion energy           0.525914136475 Eh    ::

    * Orbital Energies and Occupations

         #    Occupation            Energy/Eh            Energy/eV
      -------------------------------------------------------------
         1        2.0000           -0.9151554             -24.9026
       ...           ...                  ...                  ...
        25        2.0000           -0.6628802             -18.0379
        26        2.0000           -0.6517934             -17.7362
        27        2.0000           -0.6456442             -17.5689
        28        2.0000           -0.6400321             -17.4162
        29        2.0000           -0.6248173             -17.0021
        30        2.0000           -0.6229303             -16.9508
        31        2.0000           -0.6205051             -16.8848
        32        2.0000           -0.6151685             -16.7396
        33        2.0000           -0.6068125             -16.5122
        34        2.0000           -0.5776817             -15.7195
        35        2.0000           -0.5738756             -15.6159
        36        1.9997           -0.5422523             -14.7554
        37        1.9912           -0.5151526             -14.0180 (HOMO)
        38        0.0087           -0.4292161             -11.6796 (LUMO)
        39        0.0003           -0.4028831             -10.9630
        40        0.0000           -0.3633232              -9.8865
        41                         -0.2929144              -7.9706
        42                         -0.2321529              -6.3172
        43                         -0.1962544              -5.3404
        44                         -0.1714639              -4.6658
        45                         -0.1519996              -4.1361
        46                         -0.1248161              -3.3964
        47                         -0.0782684              -2.1298
        48                         -0.0426773              -1.1613
       ...                                ...                  ...
        67                          0.5997924              16.3212
      -------------------------------------------------------------
                  HL-Gap            0.0859364 Eh            2.3384 eV

     #   Z          covCN         q      C6AA      α(0)
     1   6 C        3.694    -0.098    22.554     6.795
     2   7 N        2.845     0.088    19.717     6.595
     3   6 C        3.058     0.052    26.773     8.485
     4   7 N        2.802    -0.060    22.401     7.030
     5   6 C        3.050     0.124    25.232     8.238
     6   6 C        3.122    -0.008    28.042     8.672
     7   6 C        2.735     0.225    23.257     7.896
     8   8 O        1.694    -0.296    18.925     5.873
     9   7 N        1.834    -0.191    25.961     7.551
    10   6 C        3.681    -0.040    21.509     6.642
    11   6 C        2.650     0.409    20.107     7.336
    12   8 O        0.857    -0.316    20.067     6.006
    13   7 N        2.733    -0.073    22.659     7.070
    14   6 C        3.695    -0.071    22.032     6.715
    15   1 H        0.925     0.122     1.599     1.978
    16   1 H        0.925     0.107     1.726     2.055
    17   1 H        0.925     0.123     1.588     1.971
    18   1 H        0.926     0.126     1.567     1.958
    19   1 H        0.925     0.089     1.892     2.151
    20   1 H        0.925     0.096     1.821     2.110
    21   1 H        0.925     0.076     2.020     2.223
    22   1 H        0.924     0.079     1.992     2.207
    23   1 H        0.924     0.081     1.966     2.193
    24   1 H        0.925     0.123     1.586     1.969
    25   1 H        0.860     0.232     0.955     1.531

Wiberg/Mayer (AO) data.
largest (>0.10) Wiberg bond orders for each atom

     #   Z sym  total        # sym  WBO       # sym  WBO       # sym  WBO
 ---------------------------------------------------------------------------
     1   6 C    3.922 --     2 N    0.990    16 H    0.973    17 H    0.955
                            15 H    0.954
     2   7 N    3.727 --     3 C    1.410     6 C    1.171     1 C    0.990
     3   6 C    3.919 --     2 N    1.410     4 N    1.284    18 H    0.951
     4   7 N    3.608 --     3 C    1.284     5 C    1.189    25 H    0.917
     5   6 C    3.954 --     6 C    1.374    13 N    1.196     4 N    1.189
     6   6 C    3.936 --     5 C    1.374     2 N    1.171     7 C    1.060
     7   6 C    3.940 --     9 N    1.872     6 C    1.060     8 O    0.871
     8   8 O    2.304 --    11 C    1.045     7 C    0.871     9 N    0.145
                            12 O    0.142
     9   7 N    3.230 --     7 C    1.872    10 C    1.019     8 O    0.145
    10   6 C    3.950 --     9 N    1.019    21 H    0.973    19 H    0.963
                            20 H    0.947
    11   6 C    3.941 --    12 O    1.785     8 O    1.045    13 N    1.036
    12   8 O    2.144 --    11 C    1.785     8 O    0.142    13 N    0.125
    13   7 N    3.547 --     5 C    1.196    11 C    1.036    14 C    0.973
                            12 O    0.125
    14   6 C    3.929 --    13 N    0.973    22 H    0.973    23 H    0.972
                            24 H    0.966
    15   1 H    0.985 --     1 C    0.954
    16   1 H    0.988 --     1 C    0.973
    17   1 H    0.985 --     1 C    0.955
    18   1 H    0.983 --     3 C    0.951
    19   1 H    0.988 --    10 C    0.963
    20   1 H    0.983 --    10 C    0.947
    21   1 H    0.992 --    10 C    0.973
    22   1 H    0.992 --    14 C    0.973
    23   1 H    0.992 --    14 C    0.972
    24   1 H    0.984 --    14 C    0.966
    25   1 H    0.945 --     4 N    0.917
 ---------------------------------------------------------------------------

molecular dipole:
                 x           y           z       tot (Debye)
 q only:        3.512      -0.857      -0.516
   full:        3.651      -1.216      -0.529       9.874

           -------------------------------------------------
          | TOTAL ENERGY              -42.191883343962 Eh   |
          | GRADIENT NORM               0.003677738934 Eh/α |
          | HOMO-LUMO GAP               2.338449269585 eV   |
           -------------------------------------------------

 * finished run on 2024/06/05 at 19:58:06.679
