   * xtb version 6.6.1 (8d0f1dd) compiled by 'conda@1efc2f54142f' on 2023-08-01
          program call               : xtb xtbopt.xyz --opt crude --input .xc2 --gfn2

   ID    Z sym.   atoms
    1    6 C      1, 3, 5-7, 10, 11, 14
    2    7 N      2, 4, 9, 13
    3    8 O      8, 12
    4    1 H      15-25
########################################################################
[WARNING] Please study the warnings concerning your input carefully
-1- readin_getIntValue: could not parse ''
########################################################################

          :  Hamiltonian                  GFN2-xTB          :
 * total energy  :   -42.1925654 Eh     change       -0.1278977E-12 Eh
 * total energy  :   -42.2005368 Eh     change       -0.7971384E-02 Eh
 * total energy  :   -42.2068855 Eh     change       -0.6348744E-02 Eh
 * total energy  :   -42.2108276 Eh     change       -0.3942113E-02 Eh
 * total energy  :   -42.2138445 Eh     change       -0.3016831E-02 Eh
 * total energy  :   -42.2159270 Eh     change       -0.2082519E-02 Eh
 * total energy  :   -42.2173872 Eh     change       -0.1460252E-02 Eh
 * total energy  :   -42.2182220 Eh     change       -0.8347650E-03 Eh
 * total energy  :   -42.2185103 Eh     change       -0.2882436E-03 Eh
   *** GEOMETRY OPTIMIZATION CONVERGED AFTER 9 ITERATIONS ***

 final structure:
================
25
 xtb: 6.6.1 (8d0f1dd)
C            2.62220185226615        1.35835666960383       -0.48734186348517
N            1.92187958728566        0.11767819894011       -0.31252436388338
C            2.42323084113012       -1.10652689762322       -0.33103275976721
N            1.43701815939851       -2.00699201066197       -0.11873063903097
C            0.26917310778728       -1.32179560230177        0.03967493567628
C            0.57756306116359        0.02111703927487       -0.08367377367719
C           -0.45394584210840        1.02331393466596        0.04331175322928
O           -1.70652356313891        0.46132589128380        0.30473229966841
N           -0.22186840529981        2.24687084871655       -0.06608527223705
C           -1.20513287541099        3.27382388764082        0.04149422377870
C           -2.02750551241492       -0.83778193931279        0.41719033254050
O           -3.14238527764118       -1.18071711953231        0.63066022832888
N           -0.97685520774191       -1.78045039723936        0.27658621054720
C           -1.28568894897062       -3.19168203118791        0.39572929766409
H            2.50234084438906        1.97404468672868        0.40457069745349
H            3.67737269813212        1.17033043661203       -0.67314700741211
H            2.18471634975508        1.91011396365817       -1.31958597347958
H            3.45295241403891       -1.36061931035110       -0.48839393907653
H           -0.78536552665807        4.06326379807523        0.66366024379971
H           -1.36966611725205        3.68461987568306       -0.95114936936563
H           -2.15032772565410        2.93424426421444        0.44668389337073
H           -0.72859091065649       -3.63832292089479        1.21913726477839
H           -1.06588823987502       -3.71285203151584       -0.53625886870745
H           -2.35072385449593       -3.27376738579897        0.60368879836625
H            1.56245060601041       -3.00935730704030       -0.08802473114045

          :  Hamiltonian                  GFN2-xTB          :
         :: total energy             -42.218510257723 Eh    ::
         :: gradient norm              0.009208631823 Eh/a0 ::
         :: HOMO-LUMO gap              2.528947179391 eV    ::
         :: SCC energy               -42.753423426227 Eh    ::
         :: -> dispersion             -0.021972448769 Eh    ::
         :: repulsion energy           0.534821546291 Eh    ::

    * Orbital Energies and Occupations

         #    Occupation            Energy/Eh            Energy/eV
      -------------------------------------------------------------
         1        2.0000           -0.9184814             -24.9932
       ...           ...                  ...                  ...
        25        2.0000           -0.6664467             -18.1349
        26        2.0000           -0.6591723             -17.9370
        27        2.0000           -0.6451252             -17.5548
        28        2.0000           -0.6361828             -17.3114
        29        2.0000           -0.6259405             -17.0327
        30        2.0000           -0.6227443             -16.9457
        31        2.0000           -0.6208353             -16.8938
        32        2.0000           -0.6193255             -16.8527
        33        2.0000           -0.5986948             -16.2913
        34        2.0000           -0.5819559             -15.8358
        35        2.0000           -0.5729770             -15.5915
        36        1.9991           -0.5390715             -14.6689
        37        1.9947           -0.5246225             -14.2757 (HOMO)
        38        0.0060           -0.4316854             -11.7468 (LUMO)
        39        0.0002           -0.4044300             -11.0051
        40        0.0000           -0.3694946             -10.0545
        41                         -0.2896240              -7.8811
        42                         -0.2018120              -5.4916
        43                         -0.1913148              -5.2059
        44                         -0.1488802              -4.0512
        45                         -0.1390721              -3.7843
        46                         -0.0845147              -2.2998
        47                         -0.0599636              -1.6317
        48                         -0.0471414              -1.2828
       ...                                ...                  ...
        67                          0.5585039              15.1977
      -------------------------------------------------------------
                  HL-Gap            0.0929371 Eh            2.5289 eV

     #   Z          covCN         q      C6AA      α(0)
     1   6 C        3.693    -0.098    22.568     6.797
     2   7 N        2.839     0.092    19.652     6.584
     3   6 C        3.069     0.051    26.787     8.487
     4   7 N        2.803    -0.059    22.379     7.026
     5   6 C        3.046     0.122    25.284     8.247
     6   6 C        3.137    -0.010    28.043     8.667
     7   6 C        2.779     0.222    23.319     7.909
     8   8 O        1.707    -0.242    18.005     5.729
     9   7 N        1.830    -0.212    26.448     7.621
    10   6 C        3.707    -0.042    21.468     6.623
    11   6 C        2.653     0.408    20.125     7.339
    12   8 O        0.858    -0.327    20.279     6.038
    13   7 N        2.735    -0.082    22.829     7.096
    14   6 C        3.695    -0.071    22.041     6.716
    15   1 H        0.924     0.126     1.568     1.958
    16   1 H        0.925     0.108     1.714     2.047
    17   1 H        0.925     0.127     1.560     1.953
    18   1 H        0.926     0.127     1.555     1.950
    19   1 H        0.925     0.088     1.903     2.157
    20   1 H        0.925     0.091     1.866     2.136
    21   1 H        0.925     0.063     2.169     2.303
    22   1 H        0.925     0.080     1.976     2.198
    23   1 H        0.925     0.081     1.969     2.194
    24   1 H        0.925     0.125     1.575     1.963
    25   1 H        0.860     0.233     0.954     1.530

Wiberg/Mayer (AO) data.
largest (>0.10) Wiberg bond orders for each atom

     #   Z sym  total        # sym  WBO       # sym  WBO       # sym  WBO
 ---------------------------------------------------------------------------
     1   6 C    3.919 --     2 N    0.989    16 H    0.974    17 H    0.953
                            15 H    0.952
     2   7 N    3.730 --     3 C    1.407     6 C    1.178     1 C    0.989
     3   6 C    3.918 --     2 N    1.407     4 N    1.279    18 H    0.951
     4   7 N    3.608 --     3 C    1.279     5 C    1.193    25 H    0.918
     5   6 C    3.955 --     6 C    1.367    13 N    1.197     4 N    1.193
     6   6 C    3.940 --     5 C    1.367     2 N    1.178     7 C    1.079
     7   6 C    3.930 --     9 N    1.775     6 C    1.079     8 O    0.944
     8   8 O    2.373 --    11 C    1.080     7 C    0.944    12 O    0.135
                             9 N    0.116
     9   7 N    3.117 --     7 C    1.775    10 C    1.036     8 O    0.116
    10   6 C    3.963 --     9 N    1.036    21 H    0.976    19 H    0.957
                            20 H    0.942
    11   6 C    3.941 --    12 O    1.765     8 O    1.080    13 N    1.020
    12   8 O    2.119 --    11 C    1.765     8 O    0.135    13 N    0.126
    13   7 N    3.540 --     5 C    1.197    11 C    1.020    14 C    0.974
                            12 O    0.126
    14   6 C    3.927 --    13 N    0.974    22 H    0.973    23 H    0.973
                            24 H    0.965
    15   1 H    0.984 --     1 C    0.952
    16   1 H    0.988 --     1 C    0.974
    17   1 H    0.984 --     1 C    0.953
    18   1 H    0.983 --     3 C    0.951
    19   1 H    0.986 --    10 C    0.957
    20   1 H    0.982 --    10 C    0.942
    21   1 H    0.995 --    10 C    0.976
    22   1 H    0.992 --    14 C    0.973
    23   1 H    0.992 --    14 C    0.973
    24   1 H    0.984 --    14 C    0.965
    25   1 H    0.945 --     4 N    0.918
 ---------------------------------------------------------------------------

molecular dipole:
                 x           y           z       tot (Debye)
 q only:        3.385      -1.295      -0.504
   full:        3.472      -1.771      -0.500       9.987

           -------------------------------------------------
          | TOTAL ENERGY              -42.218510257723 Eh   |
          | GRADIENT NORM               0.009208631823 Eh/α |
          | HOMO-LUMO GAP               2.528947179391 eV   |
           -------------------------------------------------

 * finished run on 2024/06/05 at 19:58:07.056
