   * xtb version 6.6.1 (8d0f1dd) compiled by 'conda@1efc2f54142f' on 2023-08-01
          program call               : xtb struc.xyz --opt loose --input .xc1 --gfn2

   ID    Z sym.   atoms
    1    6 C      1, 3, 5-7, 10, 11, 14
    2    7 N      2, 4, 9, 13
    3    8 O      8, 12
    4    1 H      15-25
constraining bond 10 12 to    5.7600000 Å, actual value:    2.6513323 Å

          :  Hamiltonian                  GFN2-xTB          :
 * total energy  :    26.7723478 Eh     change       -0.6650680E-10 Eh
 * total energy  :    -0.3718563 Eh     change       -0.2714420E+02 Eh
 * total energy  :   -18.2733958 Eh     change       -0.1790154E+02 Eh
 * total energy  :   -30.5692562 Eh     change       -0.1229586E+02 Eh
 * total energy  :   -38.2493168 Eh     change       -0.7680061E+01 Eh
 * total energy  :   -41.2519233 Eh     change       -0.3002607E+01 Eh
 * total energy  :   -41.5986284 Eh     change       -0.3467051E+00 Eh
 * total energy  :   -41.6125838 Eh     change       -0.1395538E-01 Eh
 * total energy  :   -41.6236418 Eh     change       -0.1105807E-01 Eh
 * total energy  :   -41.6383188 Eh     change       -0.1467697E-01 Eh
 * total energy  :   -42.0311171 Eh     change       -0.3790982E-04 Eh
 * total energy  :   -42.0311653 Eh     change       -0.4820568E-04 Eh
 * total energy  :   -42.0312016 Eh     change       -0.3629998E-04 Eh
 * total energy  :   -42.0312438 Eh     change       -0.4222325E-04 Eh
 * total energy  :   -42.0312727 Eh     change       -0.2889028E-04 Eh
 * total energy  :   -42.0313028 Eh     change       -0.3013514E-04 Eh
 * total energy  :   -42.0313296 Eh     change       -0.2673579E-04 Eh
 * total energy  :   -42.0313504 Eh     change       -0.2079378E-04 Eh
 * total energy  :   -42.0313680 Eh     change       -0.1762575E-04 Eh
   *** GEOMETRY OPTIMIZATION CONVERGED AFTER 87 ITERATIONS ***

 final structure:
================
25
 xtb: 6.6.1 (8d0f1dd)
C            3.42420507408836        1.26545336858020        0.07909464270028
N            2.47559393700251        0.18418695260605        0.02784334005703
C            2.75255782151367       -1.11636975304121        0.01162678920588
N            1.61241403832186       -1.83138243079874       -0.02344068285226
C            0.56159647377178       -0.95070332569781       -0.03045160810644
C            1.10781671438231        0.32503661047103       -0.00023036505470
C            0.28626736673437        1.51344640257330       -0.00710779546093
O            0.67093878576636        2.66084961616611        0.02072994852527
N           -1.08941208069555        1.15640736337877       -0.05905638176338
C           -2.03107885495656        2.26833584428511       -0.08535267013022
C           -1.60336207044237       -0.05357862961315       -0.07775919888630
O           -4.13136094766779       -3.08678474429732        0.21143607543216
N           -0.79332447335066       -1.17075629066013       -0.05382924081379
C           -1.34604906093598       -2.38545895352948       -0.05819369639582
H            4.00577758794383        1.21363930759646        1.00006477431959
H            4.10590288283904        1.21198737006847       -0.76972526634631
H            2.88232359832390        2.21033502650072        0.04978956459668
H            3.73834185954303       -1.53898202097824        0.02585969557244
H           -1.46886845831017        3.19762366513827       -0.16502492874364
H           -2.70436246631097        2.16075878870309       -0.93244053935446
H           -2.61941000291139        2.27387469165062        0.83050990525034
H           -0.72033397236704       -3.25824337974327       -0.03950640326416
H           -2.42844507007177       -2.47924062989809       -0.03975717535293
H           -5.08707623937398       -3.11175560147775        0.16258495951898
H            1.55977907145752       -2.84044070726316       -0.04649212455596

          :  Hamiltonian                  GFN2-xTB          :
         :: total energy             -42.031367991931 Eh    ::
         :: gradient norm              0.001745691189 Eh/a0 ::
         :: HOMO-LUMO gap              0.718335251319 eV    ::
         :: SCC energy               -42.543945872819 Eh    ::
         :: -> dispersion             -0.021367614311 Eh    ::
         :: repulsion energy           0.512533899331 Eh    ::

    * Orbital Energies and Occupations

         #    Occupation            Energy/Eh            Energy/eV
      -------------------------------------------------------------
         1        2.0000           -0.9227286             -25.1087
       ...           ...                  ...                  ...
        25        1.9999           -0.6573186             -17.8866
        26        1.9999           -0.6548688             -17.8199
        27        1.9998           -0.6402351             -17.4217
        28        1.9998           -0.6350066             -17.2794
        29        1.9996           -0.6259186             -17.0321
        30        1.9984           -0.6036222             -16.4254
        31        1.9980           -0.5996118             -16.3163
        32        1.9965           -0.5905835             -16.0706
        33        1.9944           -0.5832505             -15.8711
        34        1.9933           -0.5804870             -15.7959
        35        1.7664           -0.5223227             -14.2131
        36        1.6240           -0.5134535             -13.9718
        37        1.6202           -0.5132545             -13.9664 (HOMO)
        38        0.8921           -0.4868562             -13.2480 (LUMO)
        39        0.0961           -0.4429961             -12.0545
        40        0.0190           -0.4167355             -11.3399
        41        0.0025           -0.3845659             -10.4646
        42        0.0000           -0.2945658              -8.0155
        43                         -0.2088320              -5.6826
        44                         -0.1942377              -5.2855
        45                         -0.1436841              -3.9098
        46                         -0.1226092              -3.3364
        47                         -0.0652621              -1.7759
        48                         -0.0397032              -1.0804
       ...                                ...                  ...
        67                          0.5214885              14.1904
      -------------------------------------------------------------
                  HL-Gap            0.0263983 Eh            0.7183 eV

     #   Z          covCN         q      C6AA      α(0)
     1   6 C        3.691    -0.094    22.486     6.786
     2   7 N        2.832     0.078    19.884     6.623
     3   6 C        3.054     0.059    26.634     8.464
     4   7 N        2.791    -0.053    22.262     7.008
     5   6 C        3.061     0.088    25.986     8.359
     6   6 C        3.114    -0.002    27.919     8.655
     7   6 C        2.767     0.255    22.718     7.806
     8   8 O        0.857    -0.359    20.877     6.126
     9   7 N        2.745     0.022    20.864     6.784
    10   6 C        3.718    -0.079    22.136     6.721
    11   6 C        1.921    -0.064    32.838     9.254
    12   8 O        0.806    -0.514    24.130     6.585
    13   7 N        2.740     0.097    19.576     6.571
    14   6 C        2.813    -0.055    29.365     8.878
    15   1 H        0.924     0.109     1.705     2.042
    16   1 H        0.925     0.108     1.712     2.046
    17   1 H        0.925     0.137     1.484     1.905
    18   1 H        0.926     0.128     1.547     1.945
    19   1 H        0.925     0.114     1.661     2.016
    20   1 H        0.925     0.105     1.738     2.061
    21   1 H        0.925     0.105     1.743     2.065
    22   1 H        0.926     0.090     1.877     2.143
    23   1 H        0.925     0.199     1.103     1.642
    24   1 H        0.806     0.294     0.739     1.350
    25   1 H        0.860     0.233     0.953     1.530

Wiberg/Mayer (AO) data.
largest (>0.10) Wiberg bond orders for each atom

     #   Z sym  total        # sym  WBO       # sym  WBO       # sym  WBO
 ---------------------------------------------------------------------------
     1   6 C    3.913 --     2 N    0.984    17 H    0.961    16 H    0.959
                            15 H    0.958
     2   7 N    3.668 --     3 C    1.383     6 C    1.160     1 C    0.984
     3   6 C    3.857 --     2 N    1.383     4 N    1.303    18 H    0.951
     4   7 N    3.574 --     3 C    1.303     5 C    1.174    25 H    0.916
     5   6 C    3.880 --     6 C    1.366     4 N    1.174    13 N    1.119
     6   6 C    3.891 --     5 C    1.366     2 N    1.160     7 C    1.086
     7   6 C    3.884 --     8 O    1.679     6 C    1.086     9 N    1.025
     8   8 O    1.957 --     7 C    1.679     9 N    0.111
     9   7 N    3.652 --    11 C    1.466     7 C    1.025    10 C    0.970
                             8 O    0.111
    10   6 C    3.913 --     9 N    0.970    19 H    0.967    20 H    0.964
                            21 H    0.961
    11   6 C    2.784 --     9 N    1.466    13 N    1.127
    12   8 O    0.955 --    24 H    0.904
    13   7 N    3.700 --    14 C    1.333    11 C    1.127     5 C    1.119
    14   6 C    3.331 --    13 N    1.333    22 H    0.969    23 H    0.904
    15   1 H    0.985 --     1 C    0.958
    16   1 H    0.985 --     1 C    0.959
    17   1 H    0.981 --     1 C    0.961
    18   1 H    0.982 --     3 C    0.951
    19   1 H    0.985 --    10 C    0.967
    20   1 H    0.985 --    10 C    0.964
    21   1 H    0.984 --    10 C    0.961
    22   1 H    0.991 --    14 C    0.969
    23   1 H    0.959 --    14 C    0.904
    24   1 H    0.912 --    12 O    0.904
    25   1 H    0.945 --     4 N    0.916
 ---------------------------------------------------------------------------

molecular dipole:
                 x           y           z       tot (Debye)
 q only:        2.903      -0.824      -0.159
   full:        3.251      -1.370      -0.144       8.975

           -------------------------------------------------
          | TOTAL ENERGY              -42.031367991931 Eh   |
          | GRADIENT NORM               0.001745691189 Eh/α |
          | HOMO-LUMO GAP               0.718335251319 eV   |
           -------------------------------------------------

 * finished run on 2024/06/05 at 20:00:18.574
