   * xtb version 6.6.1 (8d0f1dd) compiled by 'conda@1efc2f54142f' on 2023-08-01
          program call               : xtb xtbopt.xyz --opt crude --input .xc2 --gfn2

   ID    Z sym.   atoms
    1    6 C      1, 3, 5-7, 10, 11, 14
    2    7 N      2, 4, 9, 13
    3    8 O      8, 12
    4    1 H      15-25

          :  Hamiltonian                  GFN2-xTB          :
 * total energy  :   -42.0313680 Eh     change        0.2082601E-10 Eh
 * total energy  :   -42.0313920 Eh     change       -0.2395284E-04 Eh
   *** GEOMETRY OPTIMIZATION CONVERGED AFTER 2 ITERATIONS ***

 final structure:
================
25
 xtb: 6.6.1 (8d0f1dd)
C            3.42401056761872        1.26655236186072        0.07739538961797
N            2.47611405417198        0.18460775114756        0.02864653581314
C            2.75394229667145       -1.11573257101464        0.01352376911157
N            1.61453557984152       -1.83186295442950       -0.02113623433643
C            0.56339520935098       -0.95181953503137       -0.02988710432719
C            1.10826678043648        0.32434305452970        0.00078489463478
C            0.28620622653384        1.51233342052284       -0.00706255542374
O            0.66945530560279        2.66011680021614        0.02001094200126
N           -1.08901090364901        1.15423604242112       -0.05794027267357
C           -2.03136352691896        2.26505328256816       -0.08288944133293
C           -1.60274013101167       -0.05598439656637       -0.07812258044810
O           -4.13641320963409       -3.06777127099136        0.21586787103029
N           -0.79158974652027       -1.17237259724692       -0.05521593145122
C           -1.34466697775651       -2.38664666238091       -0.05912406279339
H            4.00648725369976        1.21688433543994        0.99790200994834
H            4.10495562256272        1.21247983194902       -0.77199904795908
H            2.88119523507078        2.21073652758930        0.04723990093853
H            3.74019646756079       -1.53723465519327        0.02748531391400
H           -1.47143809248253        3.19453275333537       -0.16649698178424
H           -2.70619078226545        2.15522353777709       -0.92850551144257
H           -2.61881907507559        2.27273246908447        0.83361502989583
H           -0.72001829255355       -3.26039074073096       -0.04240536460845
H           -2.42675404712392       -2.47972448362235       -0.04474185916840
H           -5.09132875584321       -3.11102527141825        0.15628399480028
H            1.56200445600758       -2.84102848909526       -0.04205708585939

          :  Hamiltonian                  GFN2-xTB          :
         :: total energy             -42.031392000437 Eh    ::
         :: gradient norm              0.000778590704 Eh/a0 ::
         :: HOMO-LUMO gap              0.718519139512 eV    ::
         :: SCC energy               -42.544185607959 Eh    ::
         :: -> dispersion             -0.021371435088 Eh    ::
         :: repulsion energy           0.512749542753 Eh    ::

    * Orbital Energies and Occupations

         #    Occupation            Energy/Eh            Energy/eV
      -------------------------------------------------------------
         1        2.0000           -0.9227183             -25.1084
       ...           ...                  ...                  ...
        25        1.9999           -0.6572553             -17.8848
        26        1.9999           -0.6547747             -17.8173
        27        1.9998           -0.6402130             -17.4211
        28        1.9998           -0.6349963             -17.2791
        29        1.9996           -0.6258990             -17.0316
        30        1.9984           -0.6034893             -16.4218
        31        1.9980           -0.5995719             -16.3152
        32        1.9964           -0.5904336             -16.0665
        33        1.9944           -0.5831993             -15.8697
        34        1.9933           -0.5803369             -15.7918
        35        1.7665           -0.5222533             -14.2112
        36        1.6240           -0.5133771             -13.9697
        37        1.6202           -0.5131832             -13.9644 (HOMO)
        38        0.8920           -0.4867781             -13.2459 (LUMO)
        39        0.0962           -0.4429374             -12.0529
        40        0.0190           -0.4166538             -11.3377
        41        0.0025           -0.3844822             -10.4623
        42        0.0000           -0.2944506              -8.0124
        43                         -0.2087936              -5.6816
        44                         -0.1940647              -5.2808
        45                         -0.1434233              -3.9027
        46                         -0.1223663              -3.3298
        47                         -0.0650897              -1.7712
        48                         -0.0395772              -1.0770
       ...                                ...                  ...
        67                          0.5220263              14.2051
      -------------------------------------------------------------
                  HL-Gap            0.0264051 Eh            0.7185 eV

     #   Z          covCN         q      C6AA      α(0)
     1   6 C        3.691    -0.094    22.486     6.786
     2   7 N        2.832     0.078    19.884     6.623
     3   6 C        3.055     0.059    26.634     8.464
     4   7 N        2.791    -0.053    22.261     7.007
     5   6 C        3.061     0.088    25.986     8.360
     6   6 C        3.115    -0.002    27.919     8.655
     7   6 C        2.767     0.255    22.717     7.806
     8   8 O        0.857    -0.359    20.877     6.126
     9   7 N        2.745     0.022    20.862     6.784
    10   6 C        3.719    -0.079    22.135     6.720
    11   6 C        1.921    -0.064    32.834     9.254
    12   8 O        0.806    -0.514    24.131     6.585
    13   7 N        2.740     0.097    19.575     6.571
    14   6 C        2.814    -0.055    29.365     8.879
    15   1 H        0.924     0.109     1.705     2.042
    16   1 H        0.925     0.108     1.712     2.046
    17   1 H        0.925     0.137     1.484     1.905
    18   1 H        0.926     0.128     1.547     1.945
    19   1 H        0.925     0.114     1.662     2.016
    20   1 H        0.925     0.105     1.738     2.062
    21   1 H        0.925     0.105     1.743     2.065
    22   1 H        0.926     0.090     1.879     2.144
    23   1 H        0.925     0.199     1.103     1.642
    24   1 H        0.806     0.294     0.738     1.350
    25   1 H        0.860     0.233     0.953     1.530

Wiberg/Mayer (AO) data.
largest (>0.10) Wiberg bond orders for each atom

     #   Z sym  total        # sym  WBO       # sym  WBO       # sym  WBO
 ---------------------------------------------------------------------------
     1   6 C    3.913 --     2 N    0.984    17 H    0.961    16 H    0.959
                            15 H    0.958
     2   7 N    3.668 --     3 C    1.383     6 C    1.160     1 C    0.984
     3   6 C    3.857 --     2 N    1.383     4 N    1.303    18 H    0.951
     4   7 N    3.574 --     3 C    1.303     5 C    1.174    25 H    0.916
     5   6 C    3.880 --     6 C    1.366     4 N    1.174    13 N    1.119
     6   6 C    3.891 --     5 C    1.366     2 N    1.160     7 C    1.086
     7   6 C    3.884 --     8 O    1.679     6 C    1.086     9 N    1.025
     8   8 O    1.957 --     7 C    1.679     9 N    0.111
     9   7 N    3.652 --    11 C    1.465     7 C    1.025    10 C    0.970
                             8 O    0.111
    10   6 C    3.913 --     9 N    0.970    19 H    0.967    20 H    0.964
                            21 H    0.961
    11   6 C    2.784 --     9 N    1.465    13 N    1.127
    12   8 O    0.954 --    24 H    0.904
    13   7 N    3.700 --    14 C    1.334    11 C    1.127     5 C    1.119
    14   6 C    3.332 --    13 N    1.334    22 H    0.969    23 H    0.904
    15   1 H    0.985 --     1 C    0.958
    16   1 H    0.985 --     1 C    0.959
    17   1 H    0.981 --     1 C    0.961
    18   1 H    0.982 --     3 C    0.951
    19   1 H    0.985 --    10 C    0.967
    20   1 H    0.985 --    10 C    0.964
    21   1 H    0.984 --    10 C    0.961
    22   1 H    0.991 --    14 C    0.969
    23   1 H    0.959 --    14 C    0.904
    24   1 H    0.912 --    12 O    0.904
    25   1 H    0.945 --     4 N    0.916
 ---------------------------------------------------------------------------

molecular dipole:
                 x           y           z       tot (Debye)
 q only:        2.907      -0.842      -0.167
   full:        3.256      -1.392      -0.153       9.009

           -------------------------------------------------
          | TOTAL ENERGY              -42.031392000437 Eh   |
          | GRADIENT NORM               0.000778590704 Eh/α |
          | HOMO-LUMO GAP               0.718519139512 eV   |
           -------------------------------------------------

 * finished run on 2024/06/05 at 20:00:18.741
