   * xtb version 6.6.1 (8d0f1dd) compiled by 'conda@1efc2f54142f' on 2023-08-01
          program call               : xtb xtbopt.xyz --opt crude --input .xc2 --gfn2

   ID    Z sym.   atoms
    1    7 N      1, 17
    2    6 C      2-6, 8, 9, 11-16, 18-23, 25, 26, 28-33
    3    8 O      7, 10, 24, 27
    4    1 H      34-72

          :  Hamiltonian                  GFN2-xTB          :
 * total energy  :   -99.2901178 Eh     change       -0.5044853E-11 Eh
   *** GEOMETRY OPTIMIZATION CONVERGED AFTER 1 ITERATIONS ***

 final structure:
================
72
 xtb: 6.6.1 (8d0f1dd)
N           -1.80631747251554        3.39461234479791        1.01789985863617
C           -2.85455612372172        2.79211599664455        0.93383022842261
C           -3.86870810136878        2.30069989976327        0.10707247201986
C           -4.00064199526478        0.79604333843403        0.17949387286889
C           -4.92387354284377        0.14078935371155       -0.63499340255884
C           -5.07366941926678       -1.23410535689316       -0.58796169978582
O           -5.93992922142933       -1.94901941259897       -1.33538242888794
C           -6.80264633004614       -1.27448560767850       -2.22122036342566
C           -4.27509424828894       -1.99457797822254        0.30700017799161
O           -4.49845446396617       -3.32602867174484        0.29162548642664
C           -3.81671594610480       -4.14469158012566        1.21121326774900
C           -3.35388352962893       -1.33632466879022        1.10446157960374
C           -3.21773889389355        0.04518333910102        1.03968437300424
C           -3.49292135012910        2.70266821800001       -1.52083133644117
C           -2.60175393126893        1.80023094221546       -2.15433715547286
C            0.51254433807874        1.00670722170652        0.22077230925130
N            1.08043447820551       -0.19029159418863        0.24438255490025
C            2.49916120092695       -0.33467868078790        0.44521088180665
C            3.26784620335975       -0.46450352466436       -0.88755646250670
C            4.74357765860593       -0.32919234924197       -0.64140390193587
C            5.37695784981854        0.89213943721537       -0.79434645154577
C            6.73387905330975        1.02504703606798       -0.54034942856555
C            7.48320395076351       -0.06272689100071       -0.11852209453995
O            8.80196172253006       -0.04921115702511        0.15744115065231
C            9.52457872056033        1.14815793900273       -0.01669532729924
C            6.84006168647371       -1.31992663340766        0.04777835541861
O            7.64213113044867       -2.32397391833612        0.46016236003799
C            7.09653116004295       -3.60903541548178        0.63803500798257
C            5.48463761402481       -1.42973338703869       -0.21473194402023
C            0.34330564521071       -1.37038438701453       -0.11851861979438
C           -5.21196855480404        2.99530477839000        0.47876338822237
C           -5.59564594491104        2.62504482496700        1.91199869901996
C           -5.15279449636265        4.51236795740232        0.32526443508297
H           -5.53135900419408        0.71310035215039       -1.31564211695052
H           -7.45312734534105       -0.57179229027499       -1.69128082896918
H           -7.41205632874903       -2.04981236356151       -2.68127982337100
H           -6.24554233007088       -0.74436179625326       -3.00032141645270
H           -4.01828625105896       -3.84288989899589        2.24356153011722
H           -4.20151814602075       -5.14953210037695        1.04807124932698
H           -2.73633399783936       -4.13829063714083        1.03221441357513
H           -2.74160646083497       -1.88886079974360        1.79910694903885
H           -2.50406518120360        0.53342314897739        1.68827817296609
H           -4.48688428334544        2.69533087780059       -1.95991447803293
H           -3.09642586599118        3.71064177654364       -1.44858038452785
H           -2.93913948342393        0.84707478943820       -2.51606685987203
H           -1.54265144720334        1.97425339312300       -2.14312610940238
H           -0.52630746408763        1.10406703651646       -0.02690708405965
H            1.09726599681431        1.87468022041344        0.45144026538340
H            2.68721097970998       -1.21867441445709        1.05979951076180
H            2.87165296452009        0.54236235063275        0.97814265259692
H            2.93206507832311        0.32533691866509       -1.56153975130641
H            3.05087361468755       -1.43015986537403       -1.34568783528798
H            4.81799594782374        1.75370126336228       -1.12683197354761
H            7.19967151121544        1.98695686904187       -0.67809239143850
H            9.15855809970056        1.93727775976128        0.64719812116098
H            9.48199518965422        1.49344450592546       -1.05387110988339
H           10.55384145216108        0.90807686099862        0.24204151106316
H            7.92653147348932       -4.23731040247704        0.95514202520998
H            6.32377707840373       -3.61264087032122        1.41354772379861
H            6.68144808269786       -4.00195705155317       -0.29525665425120
H            4.98846741783548       -2.38095336978670       -0.10215215957562
H            0.61441286673145       -1.70410188236182       -1.12346716433981
H           -0.72564843953753       -1.16651681991302       -0.09693329727138
H            0.57087664461737       -2.17586000603036        0.58149215380140
H           -5.98157464560372        2.60421474463078       -0.19207224574422
H           -4.88453624312295        3.04661116447749        2.62025639086456
H           -5.61785605521270        1.54562205578523        2.04495755002825
H           -6.58218305731764        3.01840141944326        2.14378259471297
H           -4.35132482448780        4.93492824617527        0.92778837275934
H           -5.00170935910980        4.80782844308068       -0.70940854467167
H           -6.09270042839805        4.94392440331876        0.66096954121706
H           -1.32079100542867        3.64237407705710        1.86666650070453

          :  Hamiltonian                  GFN2-xTB          :
         :: total energy             -99.290117829145 Eh    ::
         :: gradient norm              0.001943564222 Eh/a0 ::
         :: HOMO-LUMO gap              0.848626505891 eV    ::
         :: SCC energy              -100.703732151486 Eh    ::
         :: -> dispersion             -0.070943298712 Eh    ::
         :: repulsion energy           1.412618211350 Eh    ::

    * Orbital Energies and Occupations

         #    Occupation            Energy/Eh            Energy/eV
      -------------------------------------------------------------
         1        2.0000           -0.8043360             -21.8871
       ...           ...                  ...                  ...
        78        1.9993           -0.5304795             -14.4351
        79        1.9990           -0.5259139             -14.3108
        80        1.9990           -0.5255707             -14.3015
        81        1.9989           -0.5247408             -14.2789
        82        1.9987           -0.5212953             -14.1852
        83        1.9986           -0.5206798             -14.1684
        84        1.9982           -0.5167451             -14.0614
        85        1.9975           -0.5114767             -13.9180
        86        1.9889           -0.4875396             -13.2666
        87        1.9817           -0.4794786             -13.0473
        88        1.9245           -0.4566211             -12.4253
        89        1.8700           -0.4475638             -12.1788
        90        1.4493           -0.4206628             -11.4468 (HOMO)
        91        0.5371           -0.3894764             -10.5982 (LUMO)
        92        0.2004           -0.3705889             -10.0842
        93        0.0460           -0.3459935              -9.4150
        94        0.0061           -0.3137731              -8.5382
        95        0.0051           -0.3108931              -8.4598
        96        0.0032           -0.3034598              -8.2576
        97        0.0027           -0.3006819              -8.1820
        98        0.0000           -0.1899286              -5.1682
        99        0.0000           -0.1780749              -4.8457
       100                         -0.1239085              -3.3717
       101                         -0.1132809              -3.0825
       ...                                ...                  ...
       171                          0.7216736              19.6377
      -------------------------------------------------------------
                  HL-Gap            0.0311865 Eh            0.8486 eV

     #   Z          covCN         q      C6AA      α(0)
     1   7 N        1.772    -0.195    26.022     7.554
     2   6 C        1.920     0.091    28.825     8.671
     3   6 C        3.854     0.020    20.211     6.394
     4   6 C        2.979     0.006    27.880     8.661
     5   6 C        2.920    -0.076    29.896     8.966
     6   6 C        2.863     0.131    25.133     8.218
     7   8 O        1.706    -0.232    17.846     5.704
     8   6 C        3.645     0.028    20.433     6.497
     9   6 C        2.864     0.128    25.201     8.229
    10   8 O        1.706    -0.233    17.862     5.706
    11   6 C        3.645     0.029    20.425     6.495
    12   6 C        2.914    -0.077    29.917     8.969
    13   6 C        2.921    -0.056    29.393     8.891
    14   6 C        3.747    -0.051    21.556     6.622
    15   6 C        2.833    -0.111    30.809     9.096
    16   6 C        2.793    -0.072    29.785     8.940
    17   7 N        2.728     0.037    20.603     6.741
    18   6 C        3.756    -0.021    20.999     6.534
    19   6 C        3.807    -0.069    21.819     6.650
    20   6 C        2.969    -0.001    28.056     8.688
    21   6 C        2.922    -0.050    29.236     8.867
    22   6 C        2.914    -0.069    29.707     8.938
    23   6 C        2.865     0.132    25.110     8.214
    24   8 O        1.706    -0.226    17.754     5.689
    25   6 C        3.646     0.026    20.466     6.502
    26   6 C        2.863     0.132    25.116     8.215
    27   8 O        1.706    -0.229    17.795     5.696
    28   6 C        3.645     0.028    20.432     6.497
    29   6 C        2.920    -0.080    30.010     8.983
    30   6 C        3.704    -0.073    22.050     6.714
    31   6 C        3.863    -0.005    20.621     6.458
    32   6 C        3.756    -0.110    22.663     6.788
    33   6 C        3.754    -0.114    22.737     6.799
    34   1 H        0.926     0.055     2.260     2.351
    35   1 H        0.924     0.050     2.316     2.380
    36   1 H        0.925     0.080     1.981     2.201
    37   1 H        0.924     0.049     2.330     2.387
    38   1 H        0.924     0.051     2.304     2.374
    39   1 H        0.925     0.080     1.982     2.201
    40   1 H        0.924     0.043     2.409     2.427
    41   1 H        0.926     0.046     2.364     2.405
    42   1 H        0.926     0.030     2.592     2.518
    43   1 H        0.925     0.069     2.096     2.264
    44   1 H        0.925     0.062     2.179     2.309
    45   1 H        0.926     0.034     2.528     2.486
    46   1 H        0.926     0.032     2.551     2.498
    47   1 H        0.926     0.075     2.030     2.228
    48   1 H        0.926     0.075     2.034     2.230
    49   1 H        0.924     0.068     2.113     2.273
    50   1 H        0.924     0.072     2.060     2.244
    51   1 H        0.924     0.055     2.262     2.352
    52   1 H        0.924     0.054     2.276     2.359
    53   1 H        0.926     0.044     2.393     2.419
    54   1 H        0.926     0.056     2.246     2.343
    55   1 H        0.924     0.052     2.292     2.368
    56   1 H        0.924     0.054     2.273     2.357
    57   1 H        0.925     0.080     1.978     2.199
    58   1 H        0.925     0.080     1.982     2.202
    59   1 H        0.924     0.047     2.357     2.401
    60   1 H        0.924     0.051     2.312     2.378
    61   1 H        0.926     0.046     2.374     2.410
    62   1 H        0.924     0.080     1.980     2.200
    63   1 H        0.925     0.081     1.972     2.196
    64   1 H        0.924     0.075     2.030     2.228
    65   1 H        0.924     0.049     2.327     2.386
    66   1 H        0.925     0.041     2.431     2.438
    67   1 H        0.925     0.043     2.405     2.425
    68   1 H        0.925     0.055     2.259     2.350
    69   1 H        0.925     0.040     2.450     2.448
    70   1 H        0.925     0.048     2.350     2.397
    71   1 H        0.925     0.057     2.236     2.338
    72   1 H        0.860     0.205     1.081     1.629

Wiberg/Mayer (AO) data.
largest (>0.10) Wiberg bond orders for each atom

     #   Z sym  total        # sym  WBO       # sym  WBO       # sym  WBO
 ---------------------------------------------------------------------------
     1   7 N    3.216 --     2 C    2.116    72 H    0.905
     2   6 C    3.543 --     1 N    2.116     3 C    1.209    15 C    0.113
     3   6 C    3.900 --     2 C    1.209     4 C    0.967    31 C    0.915
                            14 C    0.668
     4   6 C    3.956 --    13 C    1.421     5 C    1.367     3 C    0.967
     5   6 C    3.967 --     6 C    1.405     4 C    1.367    34 H    0.957
     6   6 C    3.917 --     5 C    1.405     9 C    1.227     7 O    1.098
     7   8 O    2.262 --     6 C    1.098     8 C    0.978
     8   6 C    3.933 --     7 O    0.978    36 H    0.977    35 H    0.974
                            37 H    0.974
     9   6 C    3.913 --    12 C    1.398     6 C    1.227    10 O    1.095
    10   8 O    2.256 --     9 C    1.095    11 C    0.980
    11   6 C    3.936 --    10 O    0.980    39 H    0.977    40 H    0.975
                            38 H    0.975
    12   6 C    3.969 --    13 C    1.400     9 C    1.398    41 H    0.964
    13   6 C    3.961 --     4 C    1.421    12 C    1.400    42 H    0.963
    14   6 C    3.940 --    15 C    1.288    44 H    0.968    43 H    0.947
                             3 C    0.668
    15   6 C    3.438 --    14 C    1.288    45 H    0.982    46 H    0.982
                             2 C    0.113
    16   6 C    3.453 --    17 N    1.419    48 H    0.972    47 H    0.968
    17   7 N    3.439 --    16 C    1.419    30 C    1.006    18 C    0.993
    18   6 C    3.957 --    17 N    0.993    50 H    0.968    49 H    0.965
                            19 C    0.962
    19   6 C    3.973 --    20 C    1.009    51 H    0.973    52 H    0.971
                            18 C    0.962
    20   6 C    3.950 --    21 C    1.415    29 C    1.375    19 C    1.009
    21   6 C    3.954 --    20 C    1.415    22 C    1.413    53 H    0.968
    22   6 C    3.963 --    21 C    1.413    23 C    1.389    54 H    0.963
    23   6 C    3.900 --    22 C    1.389    26 C    1.223    24 O    1.105
    24   8 O    2.254 --    23 C    1.105    25 C    0.977
    25   6 C    3.931 --    57 H    0.977    24 O    0.977    56 H    0.973
                            55 H    0.973
    26   6 C    3.904 --    29 C    1.401    23 C    1.223    27 O    1.098
    27   8 O    2.253 --    26 C    1.098    28 C    0.980
    28   6 C    3.934 --    27 O    0.980    58 H    0.977    59 H    0.974
                            60 H    0.974
    29   6 C    3.961 --    26 C    1.401    20 C    1.375    61 H    0.963
    30   6 C    3.959 --    17 N    1.006    63 H    0.975    64 H    0.971
                            62 H    0.961
    31   6 C    3.976 --    33 C    1.011    32 C    1.004    65 H    0.960
                             3 C    0.915
    32   6 C    3.987 --    31 C    1.004    66 H    0.983    67 H    0.983
                            68 H    0.982
    33   6 C    3.991 --    31 C    1.011    69 H    0.984    70 H    0.982
                            71 H    0.981
    34   1 H    0.996 --     5 C    0.957
    35   1 H    0.995 --     8 C    0.974
    36   1 H    0.993 --     8 C    0.977
    37   1 H    0.995 --     8 C    0.974
    38   1 H    0.995 --    11 C    0.975
    39   1 H    0.993 --    11 C    0.977
    40   1 H    0.995 --    11 C    0.975
    41   1 H    0.996 --    12 C    0.964
    42   1 H    0.999 --    13 C    0.963
    43   1 H    0.984 --    14 C    0.947
    44   1 H    0.990 --    14 C    0.968
    45   1 H    0.998 --    15 C    0.982
    46   1 H    0.998 --    15 C    0.982
    47   1 H    0.994 --    16 C    0.968
    48   1 H    0.994 --    16 C    0.972
    49   1 H    0.990 --    18 C    0.965
    50   1 H    0.993 --    18 C    0.968
    51   1 H    0.996 --    19 C    0.973
    52   1 H    0.996 --    19 C    0.971
    53   1 H    0.997 --    21 C    0.968
    54   1 H    0.995 --    22 C    0.963
    55   1 H    0.993 --    25 C    0.973
    56   1 H    0.993 --    25 C    0.973
    57   1 H    0.993 --    25 C    0.977
    58   1 H    0.993 --    28 C    0.977
    59   1 H    0.994 --    28 C    0.974
    60   1 H    0.994 --    28 C    0.974
    61   1 H    0.997 --    29 C    0.963
    62   1 H    0.980 --    30 C    0.961
    63   1 H    0.993 --    30 C    0.975
    64   1 H    0.987 --    30 C    0.971
    65   1 H    0.997 --    31 C    0.960
    66   1 H    0.998 --    32 C    0.983
    67   1 H    0.998 --    32 C    0.983
    68   1 H    0.995 --    32 C    0.982
    69   1 H    0.998 --    33 C    0.984
    70   1 H    0.997 --    33 C    0.982
    71   1 H    0.995 --    33 C    0.981
    72   1 H    0.938 --     1 N    0.905
 ---------------------------------------------------------------------------

molecular dipole:
                 x           y           z       tot (Debye)
 q only:        0.095       0.629       0.481
   full:       -0.070       0.778       0.720       2.699

           -------------------------------------------------
          | TOTAL ENERGY              -99.290117829145 Eh   |
          | GRADIENT NORM               0.001943564222 Eh/α |
          | HOMO-LUMO GAP               0.848626505891 eV   |
           -------------------------------------------------

 * finished run on 2024/04/06 at 11:13:21.787
