   * xtb version 6.6.1 (8d0f1dd) compiled by 'conda@1efc2f54142f' on 2023-08-01
          program call               : xtb struc.xyz --opt loose --input .xc1 --gfn2

   ID    Z sym.   atoms
    1    7 N      1, 17
    2    6 C      2-6, 8, 9, 11-16, 18-23, 25, 26, 28-33
    3    8 O      7, 10, 24, 27
    4    1 H      34-72
constraining bond 17 46 to    5.0600000 Å, actual value:    3.0043012 Å

          :  Hamiltonian                  GFN2-xTB          :
 * total energy  :   -98.6495834 Eh     change       -0.4035485E-08 Eh
 * total energy  :   -98.9317880 Eh     change       -0.2822046E+00 Eh
 * total energy  :   -99.0923759 Eh     change       -0.1605879E+00 Eh
 * total energy  :   -99.1658193 Eh     change       -0.7344341E-01 Eh
 * total energy  :   -99.1963277 Eh     change       -0.3050836E-01 Eh
 * total energy  :   -99.2149759 Eh     change       -0.1864824E-01 Eh
 * total energy  :   -99.2404159 Eh     change       -0.2544000E-01 Eh
 * total energy  :   -99.2658241 Eh     change       -0.2540816E-01 Eh
 * total energy  :   -99.2789695 Eh     change       -0.1314546E-01 Eh
 * total energy  :   -99.2952248 Eh     change       -0.1625527E-01 Eh
 * total energy  :   -99.3574365 Eh     change       -0.1513756E-03 Eh
 * total energy  :   -99.3575781 Eh     change       -0.1416005E-03 Eh
 * total energy  :   -99.3577055 Eh     change       -0.1273734E-03 Eh
 * total energy  :   -99.3578347 Eh     change       -0.1292335E-03 Eh
 * total energy  :   -99.3579618 Eh     change       -0.1271234E-03 Eh
 * total energy  :   -99.3581016 Eh     change       -0.1397500E-03 Eh
 * total energy  :   -99.3582383 Eh     change       -0.1367488E-03 Eh
 * total energy  :   -99.3583578 Eh     change       -0.1194898E-03 Eh
 * total energy  :   -99.3583937 Eh     change       -0.3586906E-04 Eh
   *** GEOMETRY OPTIMIZATION CONVERGED AFTER 94 ITERATIONS ***

 final structure:
================
72
 xtb: 6.6.1 (8d0f1dd)
N           -3.36514589495376        3.20978118272691        2.99670802977121
C           -3.24563712330495        2.06081267826259        2.51146565813524
C           -3.44854261200196        1.76421492192531        1.03737751185129
C           -4.09377064864051        0.40834262335680        0.84137442735276
C           -3.95812037608461       -0.24239321848661       -0.38500708082186
C           -4.56992403789306       -1.46199059268129       -0.62239981080880
O           -4.49730293695390       -2.16132130798444       -1.77512455042708
C           -3.83806653801158       -1.59564406689552       -2.88088637558843
C           -5.34745446207748       -2.06745741390816        0.40324758671797
O           -5.88531751754328       -3.26116409288653        0.09054632839051
C           -6.69189417552556       -3.92202625076774        1.04044260134664
C           -5.49730309716186       -1.39937890765847        1.60955425441179
C           -4.88248362980472       -0.17437516754529        1.82208510578498
C           -1.99655967699746        1.78574836328502        0.66548219877714
C           -1.16808096943065        0.69639541154394        0.71150599429473
C            0.21174885252430        0.80871168925968        0.54522942061307
N            1.08906135543923       -0.19555309829317        0.58795836476068
C            2.50161411289814        0.04406163131212        0.42708618995300
C            3.00011344856720       -0.27580134225371       -0.99668937921515
C            4.48525729653304       -0.05846214151636       -1.07067936322195
C            5.00498183207753        1.18876254051368       -1.38189067645670
C            6.37408244250095        1.40296242833001       -1.40724325831758
C            7.25593451529082        0.37117895751037       -1.11712713320545
O            8.59712641566903        0.46022792303204       -1.10687351801316
C            9.21167851117584        1.69363281169766       -1.40266841951088
C            6.73253226655559       -0.91407774028426       -0.79906409280941
O            7.65742855466170       -1.85698948658709       -0.53832529441883
C            7.24466928125608       -3.16760115954180       -0.23404997396339
C            5.35924384412044       -1.10240241995804       -0.77751796692345
C            0.65209109681504       -1.56434588966960        0.71764770753923
C           -4.30660560286591        2.82079523750601        0.28057189732151
C           -5.68686498271672        2.94218635817373        0.92180640241863
C           -3.66461310619062        4.20207628163439        0.18509777994372
H           -3.36754927670475        0.22340378934551       -1.15814605415071
H           -4.29415531065990       -0.64665363906006       -3.17792534855970
H           -3.94965755386573       -2.31773873006752       -3.68742443572023
H           -2.77316551455747       -1.43836230769798       -2.68019732472707
H           -7.58477814947622       -3.33758895933777        1.28088401882060
H           -6.98805168019461       -4.85753624073717        0.56991588507389
H           -6.13609888166668       -4.13651927968033        1.95822102831436
H           -6.10360153251612       -1.82155122132414        2.39410720328084
H           -5.04050862283395        0.32928262354622        2.76305659118700
H           -1.85481466613216        2.04979308782583       -1.97126789350874
H           -1.56479300216552        2.76149756215388        0.50627090004651
H           -1.60166221634474       -0.27691846895092        0.88783095493121
H           -1.88738280928308        2.18265390300948       -2.74105183812797
H           -2.90416679634393        1.18118711822377        3.07392894048104
H            0.63245510695459        1.79316712233008        0.39609171102916
H            3.04821910769052       -0.57506250730367        1.14442462295297
H            2.71713793627839        1.09046619872704        0.65113692033063
H            2.48789905038151        0.37607743027526       -1.70600003654222
H            2.76053450333409       -1.31106289056351       -1.24297603338760
H            4.34065905549791        2.00611225075838       -1.61738925293932
H            6.74791019387694        2.38212305725133       -1.65810214465122
H            8.91781472504706        2.46860874290600       -0.68857035194789
H            8.97750803723484        2.02419814453723       -2.41875659283220
H           10.28149306204197        1.51253463588166       -1.31929290695892
H            8.16087964033972       -3.73164174191871       -0.07103075943810
H            6.63648506838137       -3.19648289112013        0.67551435721107
H            6.68707620433328       -3.61499156523609       -1.06279799169062
H            4.95524215724205       -2.07436975318246       -0.54122576392784
H            0.05295789396052       -1.86796325968307       -0.14407988922933
H            0.04960737802707       -1.69061732238101        1.61865983977913
H            1.51744552443302       -2.21727354697079        0.78869401720610
H           -4.43588152079348        2.43072624849550       -0.73642860231730
H           -5.59898893134284        3.36529100062496        1.91845173303112
H           -6.17833035687333        1.97449878712295        0.98791886692518
H           -6.31201271061587        3.60037680858204        0.32448056897981
H           -3.37359141503864        4.54863955481300        1.17206066547035
H           -2.80175757454182        4.20553050204517       -0.47635594375223
H           -4.39086378848637        4.90025067652573       -0.22319520188284
H           -3.15687317504752        3.33114785964038        3.98218981805332

          :  Hamiltonian                  GFN2-xTB          :
         :: total energy             -99.358393702891 Eh    ::
         :: gradient norm              0.001681607245 Eh/a0 ::
         :: HOMO-LUMO gap              1.366897484405 eV    ::
         :: SCC energy              -100.780736957760 Eh    ::
         :: -> dispersion             -0.072211992833 Eh    ::
         :: repulsion energy           1.421452506909 Eh    ::

    * Orbital Energies and Occupations

         #    Occupation            Energy/Eh            Energy/eV
      -------------------------------------------------------------
         1        2.0000           -0.8095082             -22.0278
       ...           ...                  ...                  ...
        78        1.9979           -0.5292101             -14.4005
        79        1.9978           -0.5290445             -14.3960
        80        1.9963           -0.5204865             -14.1632
        81        1.9962           -0.5202131             -14.1557
        82        1.9945           -0.5142573             -13.9937
        83        1.9938           -0.5123685             -13.9423
        84        1.9924           -0.5091092             -13.8536
        85        1.9905           -0.5055548             -13.7568
        86        1.9730           -0.4888248             -13.3016
        87        1.9714           -0.4879077             -13.2766
        88        1.9023           -0.4679003             -12.7322
        89        1.8209           -0.4576209             -12.4525
        90        1.8073           -0.4563359             -12.4175 (HOMO)
        91        0.5642           -0.4061033             -11.0506 (LUMO)
        92        0.0061           -0.3291685              -8.9571
        93        0.0023           -0.3134778              -8.5302
        94        0.0022           -0.3128223              -8.5123
        95        0.0019           -0.3107224              -8.4552
        96        0.0019           -0.3106108              -8.4521
        97        0.0001           -0.2680624              -7.2943
        98        0.0000           -0.1881076              -5.1187
        99        0.0000           -0.1879349              -5.1140
       100                         -0.1220653              -3.3216
       101                         -0.0641521              -1.7457
       ...                                ...                  ...
       171                          0.5766499              15.6914
      -------------------------------------------------------------
                  HL-Gap            0.0502326 Eh            1.3669 eV

     #   Z          covCN         q      C6AA      α(0)
     1   7 N        1.774    -0.275    27.944     7.828
     2   6 C        2.909     0.105    25.688     8.311
     3   6 C        3.914     0.016    20.244     6.395
     4   6 C        2.975     0.003    27.947     8.672
     5   6 C        2.920    -0.076    29.899     8.967
     6   6 C        2.863     0.130    25.144     8.219
     7   8 O        1.706    -0.228    17.784     5.694
     8   6 C        3.645     0.029    20.425     6.495
     9   6 C        2.864     0.133    25.093     8.211
    10   8 O        1.706    -0.223    17.705     5.681
    11   6 C        3.645     0.025    20.492     6.506
    12   6 C        2.914    -0.068    29.695     8.936
    13   6 C        2.921    -0.045    29.116     8.849
    14   6 C        2.995    -0.027    28.653     8.781
    15   6 C        2.892    -0.059    29.458     8.899
    16   6 C        2.855     0.012    27.735     8.632
    17   7 N        2.731     0.001    21.257     6.848
    18   6 C        3.754    -0.016    20.915     6.521
    19   6 C        3.807    -0.071    21.847     6.654
    20   6 C        2.969     0.003    27.950     8.672
    21   6 C        2.922    -0.047    29.159     8.855
    22   6 C        2.913    -0.066    29.650     8.929
    23   6 C        2.864     0.135    25.057     8.205
    24   8 O        1.706    -0.218    17.623     5.668
    25   6 C        3.645     0.024    20.508     6.509
    26   6 C        2.862     0.134    25.064     8.206
    27   8 O        1.706    -0.221    17.669     5.675
    28   6 C        3.645     0.026    20.469     6.503
    29   6 C        2.919    -0.078    29.959     8.976
    30   6 C        3.700    -0.065    21.913     6.694
    31   6 C        3.852    -0.004    20.622     6.459
    32   6 C        3.756    -0.115    22.761     6.802
    33   6 C        3.755    -0.120    22.863     6.818
    34   1 H        0.926     0.050     2.321     2.383
    35   1 H        0.924     0.054     2.271     2.357
    36   1 H        0.925     0.081     1.971     2.195
    37   1 H        0.924     0.043     2.404     2.424
    38   1 H        0.924     0.058     2.225     2.333
    39   1 H        0.925     0.082     1.958     2.188
    40   1 H        0.924     0.054     2.271     2.357
    41   1 H        0.926     0.059     2.215     2.327
    42   1 H        0.926     0.050     2.315     2.379
    43   1 H        0.797    -0.011     3.311     2.859
    44   1 H        0.926     0.062     2.170     2.304
    45   1 H        0.926     0.051     2.313     2.379
    46   1 H        0.797     0.010     2.947     2.698
    47   1 H        0.923     0.016     2.795     2.615
    48   1 H        0.926     0.064     2.156     2.296
    49   1 H        0.924     0.066     2.132     2.283
    50   1 H        0.924     0.067     2.115     2.274
    51   1 H        0.924     0.056     2.249     2.345
    52   1 H        0.924     0.055     2.257     2.349
    53   1 H        0.926     0.049     2.336     2.390
    54   1 H        0.926     0.060     2.199     2.319
    55   1 H        0.924     0.056     2.245     2.343
    56   1 H        0.924     0.058     2.227     2.334
    57   1 H        0.925     0.084     1.942     2.179
    58   1 H        0.925     0.083     1.948     2.183
    59   1 H        0.924     0.051     2.312     2.378
    60   1 H        0.924     0.054     2.270     2.356
    61   1 H        0.926     0.049     2.332     2.388
    62   1 H        0.924     0.071     2.074     2.252
    63   1 H        0.924     0.074     2.040     2.233
    64   1 H        0.925     0.076     2.019     2.222
    65   1 H        0.924     0.040     2.451     2.448
    66   1 H        0.925     0.060     2.200     2.320
    67   1 H        0.925     0.037     2.490     2.468
    68   1 H        0.925     0.052     2.299     2.371
    69   1 H        0.925     0.074     2.046     2.237
    70   1 H        0.925     0.036     2.504     2.474
    71   1 H        0.925     0.055     2.255     2.348
    72   1 H        0.860     0.162     1.320     1.800

Wiberg/Mayer (AO) data.
largest (>0.10) Wiberg bond orders for each atom

     #   Z sym  total        # sym  WBO       # sym  WBO       # sym  WBO
 ---------------------------------------------------------------------------
     1   7 N    2.972 --     2 C    1.914    72 H    0.936
     2   6 C    3.913 --     1 N    1.914     3 C    0.939    47 H    0.933
     3   6 C    3.965 --    14 C    0.990     4 C    0.980     2 C    0.939
                            31 C    0.935
     4   6 C    3.933 --    13 C    1.405     5 C    1.373     3 C    0.980
     5   6 C    3.957 --     6 C    1.399     4 C    1.373    34 H    0.959
     6   6 C    3.892 --     5 C    1.399     9 C    1.218     7 O    1.097
     7   8 O    2.245 --     6 C    1.097     8 C    0.980
     8   6 C    3.933 --     7 O    0.980    36 H    0.977    37 H    0.973
                            35 H    0.973
     9   6 C    3.888 --    12 C    1.383     6 C    1.218    10 O    1.109
    10   8 O    2.249 --     9 C    1.109    11 C    0.975
    11   6 C    3.927 --    39 H    0.977    10 O    0.975    40 H    0.973
                            38 H    0.972
    12   6 C    3.955 --    13 C    1.414     9 C    1.383    41 H    0.963
    13   6 C    3.943 --    12 C    1.414     4 C    1.405    42 H    0.963
    14   6 C    3.690 --    15 C    1.537     3 C    0.990    44 H    0.957
    15   6 C    3.957 --    14 C    1.537    16 C    1.335    45 H    0.955
    16   6 C    3.732 --    17 N    1.343    15 C    1.335    48 H    0.956
    17   7 N    3.461 --    16 C    1.343    30 C    1.000    18 C    0.995
    18   6 C    3.958 --    17 N    0.995    50 H    0.968    19 C    0.966
                            49 H    0.963
    19   6 C    3.975 --    20 C    1.010    51 H    0.972    52 H    0.971
                            18 C    0.966
    20   6 C    3.936 --    21 C    1.403    29 C    1.382    19 C    1.010
    21   6 C    3.941 --    22 C    1.420    20 C    1.403    53 H    0.968
    22   6 C    3.955 --    21 C    1.420    23 C    1.379    54 H    0.963
    23   6 C    3.886 --    22 C    1.379    26 C    1.214    24 O    1.114
    24   8 O    2.253 --    23 C    1.114    25 C    0.975
    25   6 C    3.926 --    57 H    0.977    24 O    0.975    55 H    0.972
                            56 H    0.972
    26   6 C    3.890 --    29 C    1.392    23 C    1.214    27 O    1.108
    27   8 O    2.253 --    26 C    1.108    28 C    0.978
    28   6 C    3.930 --    27 O    0.978    58 H    0.976    59 H    0.973
                            60 H    0.973
    29   6 C    3.955 --    26 C    1.392    20 C    1.382    61 H    0.962
    30   6 C    3.962 --    17 N    1.000    64 H    0.979    62 H    0.969
                            63 H    0.968
    31   6 C    3.965 --    32 C    1.008    33 C    1.008    65 H    0.959
                             3 C    0.935
    32   6 C    3.980 --    31 C    1.008    68 H    0.981    67 H    0.980
                            66 H    0.978
    33   6 C    3.974 --    31 C    1.008    70 H    0.980    71 H    0.978
                            69 H    0.970
    34   1 H    0.996 --     5 C    0.959
    35   1 H    0.992 --     8 C    0.973
    36   1 H    0.993 --     8 C    0.977
    37   1 H    0.993 --     8 C    0.973
    38   1 H    0.991 --    11 C    0.972
    39   1 H    0.992 --    11 C    0.977
    40   1 H    0.991 --    11 C    0.973
    41   1 H    0.995 --    12 C    0.963
    42   1 H    0.996 --    13 C    0.963
    43   1 H    0.999 --    46 H    0.989
    44   1 H    0.995 --    14 C    0.957
    45   1 H    0.997 --    15 C    0.955
    46   1 H    0.997 --    43 H    0.989
    47   1 H    0.979 --     2 C    0.933
    48   1 H    0.996 --    16 C    0.956
    49   1 H    0.989 --    18 C    0.963
    50   1 H    0.994 --    18 C    0.968
    51   1 H    0.995 --    19 C    0.972
    52   1 H    0.996 --    19 C    0.971
    53   1 H    0.997 --    21 C    0.968
    54   1 H    0.995 --    22 C    0.963
    55   1 H    0.991 --    25 C    0.972
    56   1 H    0.990 --    25 C    0.972
    57   1 H    0.992 --    25 C    0.977
    58   1 H    0.992 --    28 C    0.976
    59   1 H    0.992 --    28 C    0.973
    60   1 H    0.992 --    28 C    0.973
    61   1 H    0.996 --    29 C    0.962
    62   1 H    0.986 --    30 C    0.969
    63   1 H    0.987 --    30 C    0.968
    64   1 H    0.994 --    30 C    0.979
    65   1 H    0.990 --    31 C    0.959
    66   1 H    0.992 --    32 C    0.978
    67   1 H    0.996 --    32 C    0.980
    68   1 H    0.994 --    32 C    0.981
    69   1 H    0.989 --    33 C    0.970
    70   1 H    0.996 --    33 C    0.980
    71   1 H    0.993 --    33 C    0.978
    72   1 H    0.964 --     1 N    0.936
 ---------------------------------------------------------------------------

molecular dipole:
                 x           y           z       tot (Debye)
 q only:        1.013      -0.388       0.307
   full:        1.044      -0.569       0.611       3.398

           -------------------------------------------------
          | TOTAL ENERGY              -99.358393702891 Eh   |
          | GRADIENT NORM               0.001681607245 Eh/α |
          | HOMO-LUMO GAP               1.366897484405 eV   |
           -------------------------------------------------

 * finished run on 2024/04/06 at 11:13:39.329
