   * xtb version 6.6.1 (8d0f1dd) compiled by 'conda@1efc2f54142f' on 2023-08-01
          program call               : xtb xtbopt.xyz --opt crude --input .xc2 --gfn2

   ID    Z sym.   atoms
    1    7 N      1, 17
    2    6 C      2-6, 8, 9, 11-16, 18-23, 25, 26, 28-33
    3    8 O      7, 10, 24, 27
    4    1 H      34-72

          :  Hamiltonian                  GFN2-xTB          :
 * total energy  :   -99.3180480 Eh     change       -0.3979039E-12 Eh
   *** GEOMETRY OPTIMIZATION CONVERGED AFTER 1 ITERATIONS ***

 final structure:
================
72
 xtb: 6.6.1 (8d0f1dd)
N           -2.01683811825255        3.04646978930130        2.13950085149242
C           -2.05022365942282        2.17200150507745        1.24696801510344
C           -3.21727195418394        1.96728265002232        0.31792397483022
C           -3.64607864723536        0.51082657669406        0.36104342270821
C           -4.45761718871440       -0.01637108994507       -0.64273494741618
C           -4.89948135566725       -1.33005458904331       -0.60235726115442
O           -5.68193340966983       -1.91743357612618       -1.52616498001082
C           -6.14051796809741       -1.16854558375454       -2.62725322216341
C           -4.52107119423233       -2.16391914531308        0.48787872126164
O           -4.98908159768636       -3.42280994032523        0.44198576901303
C           -4.68788275456275       -4.31021012663066        1.49408004310381
C           -3.72701263842699       -1.62651723635720        1.49125558183145
C           -3.30123462783587       -0.30899569753287        1.42885601865444
C           -2.70192446076847        2.35023513341379       -1.09439936282166
C           -1.66045620509111        1.39390990361768       -1.68498968569138
C           -0.27744602163633        1.63228356923907       -1.18678505052863
N            0.51485286973960        0.68782881996536       -0.94905770373160
C            1.86819546517576        0.91049493419333       -0.55013391712296
C            2.81134590424890        0.41796138474467       -1.66484247107199
C            4.20890799192188        0.25044183251435       -1.15105805253059
C            5.16670498887965        1.22749256092851       -1.39251561947883
C            6.45579641286676        1.10273443348884       -0.90284674451491
C            6.81930382920864       -0.00686828194665       -0.15599855702568
O            8.03107628564841       -0.24190638963504        0.37240687359868
C            9.06207629308703        0.70075515612153        0.18071491913933
C            5.84951793880516       -1.02903068412519        0.10144989292608
O            6.33487612783634       -2.05439565109348        0.82205592478268
C            5.51712043324037       -3.14948459632405        1.15585953549567
C            4.57227893373093       -0.86041554086567       -0.39853164354059
C            2.55704767131212       -2.58623213468933       -0.14497137052084
C           -4.46179239943443        2.83539478585792        0.67634585122046
C           -4.99021273700446        2.50878849860883        2.07098581200315
C           -4.21101282792022        4.33679156210589        0.56630104237575
H           -4.75604963643335        0.60920605421884       -1.46730281632894
H           -6.74917820676985       -0.31750636227393       -2.30731219865701
H           -6.75603085012563       -1.85233713845016       -3.20859654180775
H           -5.30992214468466       -0.81472797245966       -3.24589466285585
H           -5.08098434703419       -3.94765101831942        2.44844209433731
H           -5.17696585052931       -5.24712877843066        1.23488172652006
H           -3.60981515642199       -4.47535350814670        1.58194137831860
H           -3.43964381812369       -2.22856881073812        2.33765062816239
H           -2.70734471782160        0.08111608069943        2.24058770653494
H           -3.55765396662262        2.40090391699792       -1.76758807673365
H           -2.26981326524646        3.35094734667245       -1.04419183557654
H           -1.93186816489258        0.35102145703448       -1.52064911196853
H           -1.62599368916202        1.56251027660542       -2.76659520115603
H           -1.21223128262645        1.49617436607184        1.02452542748324
H            0.01870985538558        2.68746578273613       -1.07956123939042
H            2.04340015302519        0.32206990168759        0.35556123799689
H            2.07614614644461        1.96946632229359       -0.32765508688907
H            2.79574657232188        1.13915186090199       -2.48295232555769
H            2.43039298048932       -0.53019132758312       -2.04540141156632
H            4.90345247681896        2.09557096706637       -1.97651279861766
H            7.17506251145797        1.87752837906339       -1.11214394468842
H            8.79880489816058        1.67231685244641        0.60869780177360
H            9.30166021643134        0.81993889327099       -0.87972300570465
H            9.92652302423328        0.29716213054520        0.70398180620260
H            6.16617899677590       -3.84181895868193        1.68915587098792
H            4.69789551760806       -2.84635194647616        1.81288164172775
H            5.11886475076608       -3.64027330411856        0.26489040248486
H            3.70154027982539       -1.67965369204577       -0.23375053464108
H            2.82591764471143       -3.37806958637906       -0.82360945215054
H            1.71583226357882       -1.99570406005058       -0.45891070998860
H            2.53342071992730       -2.87526073543810        0.89203630935323
H           -5.23915694220490        2.56511678865244       -0.04878131618038
H           -4.26127882281022        2.79776498542904        2.82243491477065
H           -5.20524867143689        1.44789982791512        2.17446939466660
H           -5.90788036967768        3.06216298581219        2.25249344551533
H           -3.39011091477590        4.62695105201082        1.21506157936704
H           -3.99068889224607        4.64037222200246       -0.45331840218905
H           -5.10264232620826        4.87068090665973        0.88508539904435
H           -1.17254275499468        3.13273453309059        2.69596508980489

          :  Hamiltonian                  GFN2-xTB          :
         :: total energy             -99.318048019298 Eh    ::
         :: gradient norm              0.002782301482 Eh/a0 ::
         :: HOMO-LUMO gap              1.039868258585 eV    ::
         :: SCC energy              -100.698146351680 Eh    ::
         :: -> dispersion             -0.072855969976 Eh    ::
         :: repulsion energy           1.378971671278 Eh    ::

    * Orbital Energies and Occupations

         #    Occupation            Energy/Eh            Energy/eV
      -------------------------------------------------------------
         1        2.0000           -0.8186348             -22.2762
       ...           ...                  ...                  ...
        78        1.9966           -0.5308731             -14.4458
        79        1.9965           -0.5305439             -14.4368
        80        1.9955           -0.5263969             -14.3240
        81        1.9939           -0.5216141             -14.1938
        82        1.9910           -0.5154326             -14.0256
        83        1.9894           -0.5129280             -13.9575
        84        1.9876           -0.5103133             -13.8863
        85        1.9724           -0.4975472             -13.5389
        86        1.9627           -0.4927042             -13.4072
        87        1.9117           -0.4786677             -13.0252
        88        1.8615           -0.4711147             -12.8197
        89        1.7888           -0.4638035             -12.6207
        90        1.7608           -0.4615796             -12.5602 (HOMO)
        91        0.7944           -0.4233651             -11.5204 (LUMO)
        92        0.0085           -0.3436558              -9.3514
        93        0.0043           -0.3328246              -9.0566
        94        0.0019           -0.3199384              -8.7060
        95        0.0017           -0.3183462              -8.6626
        96        0.0017           -0.3180073              -8.6534
        97        0.0015           -0.3157400              -8.5917
        98        0.0000           -0.1959965              -5.3333
        99        0.0000           -0.1932102              -5.2575
       100                         -0.0699691              -1.9040
       101                         -0.0681236              -1.8537
       ...                                ...                  ...
       171                          0.5730005              15.5921
      -------------------------------------------------------------
                  HL-Gap            0.0382145 Eh            1.0399 eV

     #   Z          covCN         q      C6AA      α(0)
     1   7 N        1.774    -0.261    27.604     7.780
     2   6 C        2.828     0.104    25.684     8.305
     3   6 C        3.908     0.009    20.375     6.416
     4   6 C        2.975     0.010    27.791     8.647
     5   6 C        2.919    -0.075    29.861     8.961
     6   6 C        2.862     0.135    25.052     8.204
     7   8 O        1.706    -0.218    17.624     5.668
     8   6 C        3.644     0.025    20.499     6.508
     9   6 C        2.864     0.135    25.048     8.204
    10   8 O        1.706    -0.216    17.582     5.661
    11   6 C        3.645     0.024    20.508     6.508
    12   6 C        2.913    -0.067    29.660     8.930
    13   6 C        2.922    -0.042    29.046     8.838
    14   6 C        3.813    -0.061    21.671     6.626
    15   6 C        3.807    -0.071    21.858     6.655
    16   6 C        2.844     0.084    26.125     8.377
    17   7 N        1.829    -0.216    26.537     7.634
    18   6 C        3.763     0.021    20.261     6.416
    19   6 C        3.811    -0.068    21.800     6.646
    20   6 C        2.966     0.013    27.727     8.637
    21   6 C        2.925    -0.042    29.035     8.837
    22   6 C        2.911    -0.066    29.646     8.928
    23   6 C        2.868     0.137    25.012     8.198
    24   8 O        1.706    -0.213    17.543     5.655
    25   6 C        3.646     0.022    20.538     6.513
    26   6 C        2.856     0.139    24.972     8.191
    27   8 O        1.707    -0.218    17.623     5.668
    28   6 C        3.642     0.021    20.567     6.520
    29   6 C        2.880    -0.079    29.974     8.975
    30   6 C        3.145    -0.149    31.545     9.189
    31   6 C        3.853    -0.007    20.669     6.466
    32   6 C        3.756    -0.117    22.800     6.808
    33   6 C        3.755    -0.120    22.860     6.817
    34   1 H        0.926     0.058     2.226     2.333
    35   1 H        0.924     0.057     2.233     2.337
    36   1 H        0.925     0.085     1.931     2.173
    37   1 H        0.924     0.054     2.271     2.357
    38   1 H        0.924     0.059     2.210     2.325
    39   1 H        0.925     0.085     1.932     2.174
    40   1 H        0.924     0.055     2.253     2.347
    41   1 H        0.926     0.059     2.208     2.324
    42   1 H        0.926     0.049     2.331     2.388
    43   1 H        0.925     0.056     2.250     2.346
    44   1 H        0.924     0.056     2.248     2.345
    45   1 H        0.925     0.067     2.114     2.274
    46   1 H        0.924     0.073     2.048     2.238
    47   1 H        0.923     0.023     2.683     2.561
    48   1 H        0.923     0.018     2.766     2.601
    49   1 H        0.924     0.054     2.268     2.355
    50   1 H        0.923     0.024     2.676     2.558
    51   1 H        0.924     0.056     2.250     2.346
    52   1 H        0.924     0.070     2.086     2.259
    53   1 H        0.926     0.062     2.179     2.308
    54   1 H        0.926     0.067     2.116     2.275
    55   1 H        0.924     0.059     2.210     2.325
    56   1 H        0.924     0.061     2.193     2.316
    57   1 H        0.925     0.086     1.914     2.163
    58   1 H        0.925     0.085     1.925     2.170
    59   1 H        0.924     0.054     2.269     2.356
    60   1 H        0.924     0.059     2.216     2.328
    61   1 H        1.249     0.122     1.585     1.965
    62   1 H        0.926     0.061     2.189     2.314
    63   1 H        0.926     0.074     2.045     2.236
    64   1 H        0.926     0.057     2.230     2.335
    65   1 H        0.924     0.041     2.442     2.444
    66   1 H        0.925     0.066     2.129     2.282
    67   1 H        0.925     0.036     2.499     2.472
    68   1 H        0.925     0.054     2.272     2.357
    69   1 H        0.925     0.069     2.093     2.262
    70   1 H        0.925     0.040     2.448     2.447
    71   1 H        0.925     0.057     2.235     2.338
    72   1 H        0.860     0.161     1.328     1.805

Wiberg/Mayer (AO) data.
largest (>0.10) Wiberg bond orders for each atom

     #   Z sym  total        # sym  WBO       # sym  WBO       # sym  WBO
 ---------------------------------------------------------------------------
     1   7 N    3.009 --     2 C    1.954    72 H    0.938
     2   6 C    3.937 --     1 N    1.954     3 C    0.990    47 H    0.921
     3   6 C    3.965 --     2 C    0.990     4 C    0.977    14 C    0.950
                            31 C    0.940
     4   6 C    3.924 --    13 C    1.391     5 C    1.379     3 C    0.977
     5   6 C    3.949 --     6 C    1.389     4 C    1.379    34 H    0.956
     6   6 C    3.881 --     5 C    1.389     9 C    1.208     7 O    1.112
     7   8 O    2.249 --     6 C    1.112     8 C    0.976
     8   6 C    3.927 --     7 O    0.976    36 H    0.976    37 H    0.972
                            35 H    0.972
     9   6 C    3.874 --    12 C    1.376     6 C    1.208    10 O    1.116
    10   8 O    2.248 --     9 C    1.116    11 C    0.975
    11   6 C    3.925 --    39 H    0.976    10 O    0.975    40 H    0.972
                            38 H    0.971
    12   6 C    3.949 --    13 C    1.420     9 C    1.376    41 H    0.962
    13   6 C    3.929 --    12 C    1.420     4 C    1.391    42 H    0.961
    14   6 C    3.983 --    15 C    0.996    44 H    0.969    43 H    0.966
                             3 C    0.950
    15   6 C    3.985 --    16 C    1.030    14 C    0.996    45 H    0.963
                            46 H    0.938
    16   6 C    3.947 --    17 N    1.878    15 C    1.030    48 H    0.930
    17   7 N    3.039 --    16 C    1.878    18 C    1.029
    18   6 C    3.968 --    17 N    1.029    19 C    0.961    50 H    0.959
                            49 H    0.956
    19   6 C    3.981 --    20 C    1.013    51 H    0.973    18 C    0.961
                            52 H    0.960
    20   6 C    3.920 --    21 C    1.380    29 C    1.378    19 C    1.013
    21   6 C    3.918 --    22 C    1.421    20 C    1.380    53 H    0.962
    22   6 C    3.952 --    21 C    1.421    23 C    1.383    54 H    0.959
    23   6 C    3.864 --    22 C    1.383    26 C    1.183    24 O    1.119
    24   8 O    2.253 --    23 C    1.119    25 C    0.972
    25   6 C    3.920 --    57 H    0.976    24 O    0.972    55 H    0.971
                            56 H    0.971
    26   6 C    3.879 --    29 C    1.400    23 C    1.183    27 O    1.112
    27   8 O    2.255 --    26 C    1.112    28 C    0.974
    28   6 C    3.924 --    58 H    0.976    27 O    0.974    60 H    0.972
                            59 H    0.971
    29   6 C    3.663 --    26 C    1.400    20 C    1.378    61 H    0.622
    30   6 C    3.377 --    62 H    0.988    64 H    0.987    63 H    0.984
                            61 H    0.342
    31   6 C    3.963 --    32 C    1.008    33 C    1.007    65 H    0.957
                             3 C    0.940
    32   6 C    3.972 --    31 C    1.008    68 H    0.980    67 H    0.980
                            66 H    0.973
    33   6 C    3.969 --    31 C    1.007    70 H    0.980    71 H    0.977
                            69 H    0.969
    34   1 H    0.995 --     5 C    0.956
    35   1 H    0.990 --     8 C    0.972
    36   1 H    0.992 --     8 C    0.976
    37   1 H    0.990 --     8 C    0.972
    38   1 H    0.989 --    11 C    0.971
    39   1 H    0.992 --    11 C    0.976
    40   1 H    0.990 --    11 C    0.972
    41   1 H    0.994 --    12 C    0.962
    42   1 H    0.996 --    13 C    0.961
    43   1 H    0.994 --    14 C    0.966
    44   1 H    0.995 --    14 C    0.969
    45   1 H    0.994 --    15 C    0.963
    46   1 H    0.992 --    15 C    0.938
    47   1 H    0.971 --     2 C    0.921
    48   1 H    0.982 --    16 C    0.930
    49   1 H    0.993 --    18 C    0.956
    50   1 H    0.987 --    18 C    0.959
    51   1 H    0.995 --    19 C    0.973
    52   1 H    0.991 --    19 C    0.960
    53   1 H    0.990 --    21 C    0.962
    54   1 H    0.990 --    22 C    0.959
    55   1 H    0.990 --    25 C    0.971
    56   1 H    0.989 --    25 C    0.971
    57   1 H    0.991 --    25 C    0.976
    58   1 H    0.992 --    28 C    0.976
    59   1 H    0.991 --    28 C    0.971
    60   1 H    0.991 --    28 C    0.972
    61   1 H    0.983 --    29 C    0.622    30 C    0.342
    62   1 H    0.993 --    30 C    0.988
    63   1 H    0.991 --    30 C    0.984
    64   1 H    0.993 --    30 C    0.987
    65   1 H    0.986 --    31 C    0.957
    66   1 H    0.989 --    32 C    0.973
    67   1 H    0.995 --    32 C    0.980
    68   1 H    0.992 --    32 C    0.980
    69   1 H    0.988 --    33 C    0.969
    70   1 H    0.994 --    33 C    0.980
    71   1 H    0.991 --    33 C    0.977
    72   1 H    0.965 --     1 N    0.938
 ---------------------------------------------------------------------------

molecular dipole:
                 x           y           z       tot (Debye)
 q only:        0.801      -0.246      -0.321
   full:        1.136      -0.039      -0.404       3.065

           -------------------------------------------------
          | TOTAL ENERGY              -99.318048019298 Eh   |
          | GRADIENT NORM               0.002782301482 Eh/α |
          | HOMO-LUMO GAP               1.039868258585 eV   |
           -------------------------------------------------

 * finished run on 2024/04/06 at 11:13:21.964
