   * xtb version 6.6.1 (8d0f1dd) compiled by 'conda@1efc2f54142f' on 2023-08-01
          program call               : xtb xtbopt.xyz --opt crude --input .xc2 --gfn2

   ID    Z sym.   atoms
    1    6 C      1, 3, 5-7, 10, 11, 14
    2    7 N      2, 4, 9, 13
    3    8 O      8, 12
    4    1 H      15-25

          :  Hamiltonian                  GFN2-xTB          :
 * total energy  :   -42.1030442 Eh     change       -0.1255529E-10 Eh
   *** GEOMETRY OPTIMIZATION CONVERGED AFTER 1 ITERATIONS ***

 final structure:
================
25
 xtb: 6.6.1 (8d0f1dd)
C            3.25282399746540        1.23002943386966        0.03424535010698
N            2.31603353251976        0.14189958658915       -0.05611005544946
C            2.60907727023610       -1.15148735149834       -0.13335471768502
N            1.47519082443495       -1.88009349746564       -0.18493164619820
C            0.41379341427455       -1.01054846312085       -0.13904188057084
C            0.94793495998564        0.26978314028086       -0.05853303985343
C            0.11958173383881        1.45438641280657       -0.00870886857049
O            0.51554956234052        2.59614761263008        0.04010115302901
N           -1.23945264622467        1.11872165663321       -0.02804143016961
C           -2.19734261760701        2.22019193817233        0.02340508164580
C           -1.81237868327264       -0.12092987296107       -0.10126229575486
O           -2.99311315026582       -0.31192605336321       -0.11880754016252
N           -0.91531601029425       -1.27120150692864       -0.16353002709502
C           -1.47111454577257       -2.48955781071085       -0.24225760603186
H            3.76880062117848        1.20462570710948        0.99499374027562
H            3.99215331207524        1.16027012043442       -0.76281399890028
H            2.70820496866105        2.16984811680468       -0.04989026139697
H            3.60002708179940       -1.56136669318064       -0.14807697890212
H           -1.63752609986807        3.15172973588273        0.04735296561800
H           -2.84301368299652        2.18763837626939       -0.85291780498977
H           -2.81637256622114        2.12899303358792        0.91494043608599
H           -2.66302196310834       -4.62391222702168        1.83458131542127
H           -0.86015089779915       -3.36768739458110       -0.29485552358677
H           -2.54259358305310       -2.54042884548451       -0.26335583411829
H            1.43265668177325       -2.88688661315395       -0.25195891484724

          :  Hamiltonian                  GFN2-xTB          :
         :: total energy             -42.103044211693 Eh    ::
         :: gradient norm              0.002161517044 Eh/a0 ::
         :: HOMO-LUMO gap              0.197499680798 eV    ::
         :: SCC energy               -42.626541320327 Eh    ::
         :: -> dispersion             -0.022621420764 Eh    ::
         :: repulsion energy           0.523403232662 Eh    ::

    * Orbital Energies and Occupations

         #    Occupation            Energy/Eh            Energy/eV
      -------------------------------------------------------------
         1        2.0000           -0.9188114             -25.0021
       ...           ...                  ...                  ...
        25        2.0000           -0.6702213             -18.2377
        26        2.0000           -0.6700874             -18.2340
        27        2.0000           -0.6610730             -17.9887
        28        1.9999           -0.6371429             -17.3375
        29        1.9998           -0.6334302             -17.2365
        30        1.9998           -0.6294749             -17.1289
        31        1.9996           -0.6210756             -16.9003
        32        1.9986           -0.6000296             -16.3276
        33        1.9976           -0.5912079             -16.0876
        34        1.9968           -0.5866153             -15.9626
        35        1.9879           -0.5656790             -15.3929
        36        1.9868           -0.5642262             -15.3534
        37        1.0761           -0.4872849             -13.2597 (HOMO)
        38        0.8482           -0.4800269             -13.0622 (LUMO)
        39        0.0972           -0.4377702             -11.9123
        40        0.0099           -0.4009440             -10.9102
        41        0.0019           -0.3748868             -10.2012
        42        0.0000           -0.2901258              -7.8947
        43                         -0.2150235              -5.8511
        44                         -0.2024014              -5.5076
        45                         -0.1525831              -4.1520
        46                         -0.1364841              -3.7139
        47                         -0.0692970              -1.8857
        48                         -0.0416863              -1.1343
       ...                                ...                  ...
        67                          0.5555580              15.1175
      -------------------------------------------------------------
                  HL-Gap            0.0072580 Eh            0.1975 eV

     #   Z          covCN         q      C6AA      α(0)
     1   6 C        3.692    -0.097    22.539     6.794
     2   7 N        2.832     0.085    19.761     6.602
     3   6 C        3.051     0.054    26.735     8.480
     4   7 N        2.790    -0.056    22.321     7.017
     5   6 C        3.039     0.093    25.902     8.348
     6   6 C        3.113    -0.016    28.249     8.707
     7   6 C        2.763     0.267    22.491     7.766
     8   8 O        0.858    -0.364    20.977     6.141
     9   7 N        2.744    -0.078    22.765     7.086
    10   6 C        3.713    -0.064    21.871     6.682
    11   6 C        2.734     0.311    21.720     7.630
    12   8 O        0.859    -0.336    20.442     6.062
    13   7 N        2.735     0.009    21.106     6.823
    14   6 C        2.797    -0.057    29.394     8.881
    15   1 H        0.924     0.110     1.693     2.035
    16   1 H        0.925     0.107     1.718     2.050
    17   1 H        0.925     0.139     1.465     1.893
    18   1 H        0.926     0.128     1.547     1.945
    19   1 H        0.925     0.116     1.643     2.004
    20   1 H        0.925     0.099     1.791     2.093
    21   1 H        0.925     0.099     1.796     2.095
    22   1 H        0.000    -0.005     7.855     5.125
    23   1 H        0.926     0.089     1.887     2.148
    24   1 H        0.926     0.135     1.498     1.914
    25   1 H        0.860     0.230     0.965     1.539

Wiberg/Mayer (AO) data.
largest (>0.10) Wiberg bond orders for each atom

     #   Z sym  total        # sym  WBO       # sym  WBO       # sym  WBO
 ---------------------------------------------------------------------------
     1   6 C    3.912 --     2 N    0.984    16 H    0.962    17 H    0.959
                            15 H    0.955
     2   7 N    3.673 --     3 C    1.386     6 C    1.165     1 C    0.984
     3   6 C    3.843 --     2 N    1.386     4 N    1.289    18 H    0.951
     4   7 N    3.555 --     3 C    1.289     5 C    1.166    25 H    0.918
     5   6 C    3.886 --     6 C    1.339     4 N    1.166    13 N    1.163
     6   6 C    3.858 --     5 C    1.339     2 N    1.165     7 C    1.074
     7   6 C    3.917 --     8 O    1.676     9 N    1.081     6 C    1.074
     8   8 O    1.990 --     7 C    1.676     9 N    0.138
     9   7 N    3.569 --    11 C    1.170     7 C    1.081    10 C    0.962
                            12 O    0.151     8 O    0.138
    10   6 C    3.911 --    19 H    0.968    20 H    0.966    21 H    0.966
                             9 N    0.962
    11   6 C    3.925 --    12 O    1.729     9 N    1.170    13 N    0.931
    12   8 O    2.058 --    11 C    1.729     9 N    0.151
    13   7 N    3.623 --    14 C    1.303     5 C    1.163    11 C    0.931
    14   6 C    3.348 --    13 N    1.303    23 H    0.969    24 H    0.958
    15   1 H    0.984 --     1 C    0.955
    16   1 H    0.986 --     1 C    0.962
    17   1 H    0.980 --     1 C    0.959
    18   1 H    0.982 --     3 C    0.951
    19   1 H    0.985 --    10 C    0.968
    20   1 H    0.986 --    10 C    0.966
    21   1 H    0.986 --    10 C    0.966
    22   1 H    0.012
    23   1 H    0.991 --    14 C    0.969
    24   1 H    0.981 --    14 C    0.958
    25   1 H    0.947 --     4 N    0.918
 ---------------------------------------------------------------------------

molecular dipole:
                 x           y           z       tot (Debye)
 q only:        2.690      -1.663      -0.244
   full:        2.966      -2.248      -0.268       9.485

           -------------------------------------------------
          | TOTAL ENERGY              -42.103044211693 Eh   |
          | GRADIENT NORM               0.002161517044 Eh/α |
          | HOMO-LUMO GAP               0.197499680798 eV   |
           -------------------------------------------------

 * finished run on 2024/06/05 at 20:00:11.729
