   * xtb version 6.6.1 (8d0f1dd) compiled by 'conda@1efc2f54142f' on 2023-08-01
          program call               : xtb struc.xyz --opt loose --input .xc1 --gfn2

   ID    Z sym.   atoms
    1    6 C      1, 3, 5-7, 10, 11, 14
    2    7 N      2, 4, 9, 13
    3    8 O      8, 12
    4    1 H      15-25
constraining bond 4 7 to    5.9200000 Å, actual value:    3.5994291 Å

          :  Hamiltonian                  GFN2-xTB          :
 * total energy  :   -32.6326800 Eh     change       -0.6650680E-10 Eh
 * total energy  :   -36.3687593 Eh     change       -0.3736079E+01 Eh
 * total energy  :   -39.0644317 Eh     change       -0.2695672E+01 Eh
 * total energy  :   -40.9040989 Eh     change       -0.1839667E+01 Eh
 * total energy  :   -41.6820686 Eh     change       -0.7779698E+00 Eh
 * total energy  :   -41.7882868 Eh     change       -0.1062182E+00 Eh
 * total energy  :   -41.8110572 Eh     change       -0.2277033E-01 Eh
 * total energy  :   -41.8708729 Eh     change       -0.5981572E-01 Eh
 * total energy  :   -41.8925346 Eh     change       -0.2166170E-01 Eh
 * total energy  :   -41.9117673 Eh     change       -0.1923268E-01 Eh
 * total energy  :   -42.1035134 Eh     change       -0.4247676E-02 Eh
 * total energy  :   -42.1054885 Eh     change       -0.1975104E-02 Eh
 * total energy  :   -42.1070217 Eh     change       -0.1533111E-02 Eh
 * total energy  :   -42.1073758 Eh     change       -0.3541783E-03 Eh
 * total energy  :   -42.1075345 Eh     change       -0.1586480E-03 Eh
 * total energy  :   -42.1076160 Eh     change       -0.8153300E-04 Eh
 * total energy  :   -42.1076797 Eh     change       -0.6364243E-04 Eh
 * total energy  :   -42.1077398 Eh     change       -0.6014130E-04 Eh
 * total energy  :   -42.1077895 Eh     change       -0.4973999E-04 Eh
   *** GEOMETRY OPTIMIZATION CONVERGED AFTER 53 ITERATIONS ***

 final structure:
================
25
 xtb: 6.6.1 (8d0f1dd)
C            3.02899358840421        0.63351350663031        0.12025042436586
N            2.42152891697184       -0.69894283105981       -0.02713675301392
C            3.39823308342954       -1.75632440021178       -0.07527300438268
N            3.39269252236505       -3.00401400952720       -0.12756772750982
C           -0.06736239504977       -0.10290660916981       -0.03954980703729
C            1.11078627101381       -0.73500493163068       -0.06028583612283
C           -0.51155205010606        1.42928084617613       -0.07746362457376
O            0.24224155950077        2.35615783370011       -0.11820891998474
N           -1.85529790691567        1.38125258311911       -0.03255436220684
C           -2.70694193039800        2.54999584632368       -0.03805738521230
C           -2.36183881371139        0.08244652917324        0.01826649933681
O           -3.51243485425712       -0.23609698275504        0.05435396859518
N           -1.26846677535949       -0.77252242366270        0.01937340589849
C           -1.42722503164656       -2.19894269703237        0.06195000854983
H            3.57260616676315        0.69581153944114        1.06428022962337
H            3.71402373090299        0.81457349119667       -0.70996914486654
H            2.25738716648261        1.40506161107532        0.10364954120914
H            4.38344518555259       -1.29770379701292       -0.04229394855392
H           -2.07955521319620        3.43849176665671       -0.06091714179795
H           -3.35702835674207        2.52711250248872       -0.91364500667167
H           -3.32973729470288        2.55327987884819        0.85724353898291
H           -0.96480021115576       -2.61087407986679        0.96077128020402
H           -0.97169108008297       -2.65825171254995       -0.81724082088746
H           -2.49565393852955       -2.41380349750423        0.07318798613935
H            2.54807917456672       -3.56335142124985       -0.16199178218168

          :  Hamiltonian                  GFN2-xTB          :
         :: total energy             -42.107789539210 Eh    ::
         :: gradient norm              0.003146113346 Eh/a0 ::
         :: HOMO-LUMO gap              0.544288920683 eV    ::
         :: SCC energy               -42.638399564484 Eh    ::
         :: -> dispersion             -0.020404317134 Eh    ::
         :: repulsion energy           0.530285445461 Eh    ::

    * Orbital Energies and Occupations

         #    Occupation            Energy/Eh            Energy/eV
      -------------------------------------------------------------
         1        2.0000           -0.8990542             -24.4645
       ...           ...                  ...                  ...
        25        1.9995           -0.6567066             -17.8699
        26        1.9994           -0.6535616             -17.7843
        27        1.9992           -0.6497567             -17.6808
        28        1.9985           -0.6405314             -17.4297
        29        1.9985           -0.6396391             -17.4055
        30        1.9979           -0.6344975             -17.2656
        31        1.9964           -0.6262780             -17.0419
        32        1.9910           -0.6116693             -16.6444
        33        1.9865           -0.6052898             -16.4708
        34        1.9632           -0.5892015             -16.0330
        35        1.9441           -0.5824119             -15.8482
        36        1.8634           -0.5675975             -15.4451
        37        1.4260           -0.5406259             -14.7112 (HOMO)
        38        0.8252           -0.5206237             -14.1669 (LUMO)
        39        0.0110           -0.4439543             -12.0806
        40        0.0005           -0.3933788             -10.7044
        41        0.0000           -0.3474379              -9.4543
        42        0.0000           -0.3230961              -8.7919
        43                         -0.2168379              -5.9005
        44                         -0.1863894              -5.0719
        45                         -0.1762794              -4.7968
        46                         -0.0917429              -2.4965
        47                         -0.0907561              -2.4696
        48                         -0.0606248              -1.6497
       ...                                ...                  ...
        67                          0.6230503              16.9541
      -------------------------------------------------------------
                  HL-Gap            0.0200022 Eh            0.5443 eV

     #   Z          covCN         q      C6AA      α(0)
     1   6 C        3.717    -0.085    22.255     6.739
     2   7 N        2.725     0.047    20.432     6.713
     3   6 C        2.758     0.122    25.311     8.239
     4   7 N        1.771    -0.196    26.032     7.555
     5   6 C        2.931     0.019    27.577     8.612
     6   6 C        1.929     0.025    30.453     8.912
     7   6 C        2.815     0.281    22.247     7.728
     8   8 O        0.856    -0.304    19.857     5.974
     9   7 N        2.775    -0.055    22.297     7.013
    10   6 C        3.692    -0.060    21.845     6.688
    11   6 C        2.799     0.322    21.539     7.603
    12   8 O        0.857    -0.320    20.139     6.017
    13   7 N        2.781    -0.023    21.695     6.918
    14   6 C        3.692    -0.070    22.026     6.716
    15   1 H        0.924     0.107     1.721     2.052
    16   1 H        0.924     0.111     1.691     2.034
    17   1 H        0.924     0.117     1.637     2.001
    18   1 H        0.925     0.120     1.611     1.985
    19   1 H        0.925     0.110     1.692     2.034
    20   1 H        0.924     0.110     1.698     2.038
    21   1 H        0.924     0.110     1.699     2.038
    22   1 H        0.924     0.096     1.817     2.108
    23   1 H        0.924     0.096     1.823     2.111
    24   1 H        0.925     0.122     1.598     1.977
    25   1 H        0.860     0.198     1.117     1.655

Wiberg/Mayer (AO) data.
largest (>0.10) Wiberg bond orders for each atom

     #   Z sym  total        # sym  WBO       # sym  WBO       # sym  WBO
 ---------------------------------------------------------------------------
     1   6 C    3.849 --    17 H    0.959    15 H    0.956    16 H    0.952
                             2 N    0.933
     2   7 N    3.494 --     6 C    1.378     3 C    1.020     1 C    0.933
     3   6 C    3.918 --     4 N    1.922     2 N    1.020    18 H    0.923
     4   7 N    2.992 --     3 C    1.922    25 H    0.923
     5   6 C    3.760 --     6 C    1.587    13 N    1.147     7 C    0.814
     6   6 C    3.211 --     5 C    1.587     2 N    1.378
     7   6 C    3.861 --     8 O    1.744     9 N    1.208     5 C    0.814
     8   8 O    2.077 --     7 C    1.744     9 N    0.140
     9   7 N    3.538 --     7 C    1.208    11 C    1.052    10 C    0.968
                             8 O    0.140    12 O    0.105
    10   6 C    3.889 --    19 H    0.970     9 N    0.968    21 H    0.955
                            20 H    0.954
    11   6 C    3.941 --    12 O    1.721    13 N    1.081     9 N    1.052
    12   8 O    2.016 --    11 C    1.721    13 N    0.107     9 N    0.105
    13   7 N    3.420 --     5 C    1.147    11 C    1.081    14 C    0.992
                            12 O    0.107
    14   6 C    3.910 --    13 N    0.992    24 H    0.965    23 H    0.956
                            22 H    0.955
    15   1 H    0.972 --     1 C    0.956
    16   1 H    0.971 --     1 C    0.952
    17   1 H    0.983 --     1 C    0.959
    18   1 H    0.969 --     3 C    0.923
    19   1 H    0.983 --    10 C    0.970
    20   1 H    0.973 --    10 C    0.954
    21   1 H    0.974 --    10 C    0.955
    22   1 H    0.971 --    14 C    0.955
    23   1 H    0.972 --    14 C    0.956
    24   1 H    0.983 --    14 C    0.965
    25   1 H    0.950 --     4 N    0.923
 ---------------------------------------------------------------------------

molecular dipole:
                 x           y           z       tot (Debye)
 q only:        1.520      -0.755       0.047
   full:        1.310      -0.631       0.052       3.697

           -------------------------------------------------
          | TOTAL ENERGY              -42.107789539210 Eh   |
          | GRADIENT NORM               0.003146113346 Eh/α |
          | HOMO-LUMO GAP               0.544288920683 eV   |
           -------------------------------------------------

 * finished run on 2024/06/05 at 19:58:18.721
