   * xtb version 6.6.1 (8d0f1dd) compiled by 'conda@1efc2f54142f' on 2023-08-01
          program call               : xtb struc.xyz --opt loose --input .xc1 --gfn2

   ID    Z sym.   atoms
    1    6 C      1, 3, 5-7, 10, 11, 14
    2    7 N      2, 4, 9, 13
    3    8 O      8, 12
    4    1 H      15-25
constraining bond 13 14 to    3.9200000 Å, actual value:    1.4502802 Å

          :  Hamiltonian                  GFN2-xTB          :
 * total energy  :   -31.3569774 Eh     change       -0.6650680E-10 Eh
 * total energy  :   -35.3461810 Eh     change       -0.3989204E+01 Eh
 * total energy  :   -38.7080937 Eh     change       -0.3361913E+01 Eh
 * total energy  :   -40.7297459 Eh     change       -0.2021652E+01 Eh
 * total energy  :   -41.4920431 Eh     change       -0.7622972E+00 Eh
 * total energy  :   -41.6057495 Eh     change       -0.1137064E+00 Eh
 * total energy  :   -41.6286125 Eh     change       -0.2286302E-01 Eh
 * total energy  :   -41.6840699 Eh     change       -0.5545739E-01 Eh
 * total energy  :   -41.7328143 Eh     change       -0.4874438E-01 Eh
 * total energy  :   -41.7784348 Eh     change       -0.4562047E-01 Eh
 * total energy  :   -42.2013082 Eh     change       -0.1216917E-02 Eh
 * total energy  :   -42.2014087 Eh     change       -0.1005080E-03 Eh
 * total energy  :   -42.2015785 Eh     change       -0.1697917E-03 Eh
 * total energy  :   -42.2017046 Eh     change       -0.1261277E-03 Eh
 * total energy  :   -42.2018079 Eh     change       -0.1032918E-03 Eh
 * total energy  :   -42.2019200 Eh     change       -0.1121560E-03 Eh
 * total energy  :   -42.2019839 Eh     change       -0.6382667E-04 Eh
 * total energy  :   -42.2020478 Eh     change       -0.6394143E-04 Eh
 * total energy  :   -42.2020919 Eh     change       -0.4410379E-04 Eh
   *** GEOMETRY OPTIMIZATION CONVERGED AFTER 94 ITERATIONS ***

 final structure:
================
25
 xtb: 6.6.1 (8d0f1dd)
C            3.14334155978714        1.97377035576813        0.01624358629724
N            2.68640558647046        0.61314906790346        0.11906637871377
C            3.42854386653008       -0.47799211311089        0.26066764058316
N            2.64719812392630       -1.57408526336973        0.29687211038914
C            1.34704301421185       -1.17111519979786        0.17137445154561
C            1.37473489483484        0.21491197543106        0.05914699266075
C            0.14610845620101        0.93850191879065       -0.06005241715101
O            0.02667384821528        2.13968113419203       -0.14038894982539
N           -0.98181491355060        0.06871329558324       -0.07286142969722
C           -2.24453113884363        0.79333190589796       -0.17807048631739
C           -0.93374545572360       -1.30589894120612        0.02052837065335
O           -2.04406328846448       -2.03424691111561       -0.00834978677285
N            0.27678021342647       -1.93449206846613        0.15281031795378
C           -3.60118013425761       -1.83966927478048       -0.15447876095629
H            3.76157901920672        2.23525207468592        0.87430394015456
H            3.72919518420877        2.10924338735529       -0.89362589969132
H            2.27287353247494        2.62781995830150       -0.01850833015103
H            4.49869747206688       -0.48725018647803        0.33851615825978
H           -1.99379860744117        1.84027680300158       -0.35224892353334
H           -2.83406791840219        0.43457216137779       -1.01554328314120
H           -2.79988218328644        0.73045833424865        0.75572549063249
H           -3.93445571452568       -2.83716855757652        0.11096682807917
H           -3.80749541772916       -1.61299783639512       -1.19327447078652
H           -3.95803357129458       -1.09538350754993        0.54314286248932
H            2.95432508605976       -2.53114397109292        0.39920922750751

          :  Hamiltonian                  GFN2-xTB          :
         :: total energy             -42.202091912425 Eh    ::
         :: gradient norm              0.002410097517 Eh/a0 ::
         :: HOMO-LUMO gap              3.208636157753 eV    ::
         :: SCC energy               -42.709504409720 Eh    ::
         :: -> dispersion             -0.021946468241 Eh    ::
         :: repulsion energy           0.505929053431 Eh    ::

    * Orbital Energies and Occupations

         #    Occupation            Energy/Eh            Energy/eV
      -------------------------------------------------------------
         1        2.0000           -0.8945382             -24.3416
       ...           ...                  ...                  ...
        25        2.0000           -0.6630586             -18.0427
        26        2.0000           -0.6491733             -17.6649
        27        2.0000           -0.6477847             -17.6271
        28        1.9999           -0.6437144             -17.5164
        29        1.9998           -0.6277577             -17.0822
        30        1.9998           -0.6211235             -16.9016
        31        1.9996           -0.6142617             -16.7149
        32        1.9994           -0.6063505             -16.4996
        33        1.9989           -0.5968879             -16.2421
        34        1.9942           -0.5702071             -15.5161
        35        1.9891           -0.5601339             -15.2420
        36        1.9732           -0.5457170             -14.8497
        37        1.9643           -0.5410850             -14.7237 (HOMO)
        38        0.0621           -0.4231698             -11.5150 (LUMO)
        39        0.0176           -0.4028069             -10.9609
        40        0.0020           -0.3686548             -10.0316
        41        0.0000           -0.3072412              -8.3605
        42        0.0000           -0.2730083              -7.4289
        43                         -0.1864778              -5.0743
        44                         -0.1715925              -4.6693
        45                         -0.1209780              -3.2920
        46                         -0.0795912              -2.1658
        47                         -0.0547831              -1.4907
        48                         -0.0297751              -0.8102
       ...                                ...                  ...
        67                          0.5356727              14.5764
      -------------------------------------------------------------
                  HL-Gap            0.1179152 Eh            3.2086 eV

     #   Z          covCN         q      C6AA      α(0)
     1   6 C        3.691    -0.092    22.443     6.779
     2   7 N        2.828     0.081    19.842     6.616
     3   6 C        3.069     0.060    26.596     8.456
     4   7 N        2.797    -0.052    22.244     7.005
     5   6 C        3.073     0.148    24.718     8.152
     6   6 C        3.131    -0.028    28.493     8.739
     7   6 C        2.775     0.271    22.416     7.754
     8   8 O        0.858    -0.382    21.317     6.190
     9   7 N        2.740    -0.088    22.948     7.115
    10   6 C        3.703    -0.065    21.904     6.691
    11   6 C        2.744     0.305    21.819     7.648
    12   8 O        1.656    -0.233    17.880     5.708
    13   7 N        1.831    -0.260    27.615     7.787
    14   6 C        3.577     0.002    21.296     6.705
    15   1 H        0.925     0.103     1.754     2.071
    16   1 H        0.924     0.105     1.743     2.065
    17   1 H        0.925     0.132     1.521     1.929
    18   1 H        0.926     0.123     1.590     1.972
    19   1 H        0.924     0.122     1.594     1.974
    20   1 H        0.925     0.082     1.960     2.189
    21   1 H        0.925     0.079     1.988     2.205
    22   1 H        0.925     0.132     1.517     1.926
    23   1 H        0.925     0.109     1.706     2.042
    24   1 H        0.926     0.107     1.719     2.050
    25   1 H        0.860     0.238     0.933     1.513

Wiberg/Mayer (AO) data.
largest (>0.10) Wiberg bond orders for each atom

     #   Z sym  total        # sym  WBO       # sym  WBO       # sym  WBO
 ---------------------------------------------------------------------------
     1   6 C    3.920 --     2 N    0.985    17 H    0.963    15 H    0.963
                            16 H    0.959
     2   7 N    3.694 --     3 C    1.396     6 C    1.160     1 C    0.985
     3   6 C    3.882 --     2 N    1.396     4 N    1.304    18 H    0.952
     4   7 N    3.603 --     3 C    1.304     5 C    1.170    25 H    0.916
     5   6 C    3.956 --    13 N    1.322     6 C    1.299     4 N    1.170
     6   6 C    3.915 --     5 C    1.299     2 N    1.160     7 C    1.118
     7   6 C    3.947 --     8 O    1.677     6 C    1.118     9 N    1.049
     8   8 O    2.038 --     7 C    1.677     9 N    0.141
     9   7 N    3.573 --    11 C    1.211     7 C    1.049    10 C    0.973
                             8 O    0.141
    10   6 C    3.925 --     9 N    0.973    20 H    0.970    21 H    0.968
                            19 H    0.958
    11   6 C    3.925 --    13 N    1.319    12 O    1.240     9 N    1.211
    12   8 O    2.332 --    11 C    1.240    14 C    0.860
    13   7 N    2.991 --     5 C    1.322    11 C    1.319
    14   6 C    3.836 --    23 H    0.975    24 H    0.975    22 H    0.971
                            12 O    0.860
    15   1 H    0.987 --     1 C    0.963
    16   1 H    0.987 --     1 C    0.959
    17   1 H    0.982 --     1 C    0.963
    18   1 H    0.984 --     3 C    0.952
    19   1 H    0.984 --    10 C    0.958
    20   1 H    0.991 --    10 C    0.970
    21   1 H    0.991 --    10 C    0.968
    22   1 H    0.982 --    14 C    0.971
    23   1 H    0.986 --    14 C    0.975
    24   1 H    0.987 --    14 C    0.975
    25   1 H    0.943 --     4 N    0.916
 ---------------------------------------------------------------------------

molecular dipole:
                 x           y           z       tot (Debye)
 q only:        1.519      -0.973       0.119
   full:        1.742      -0.964       0.137       5.073

           -------------------------------------------------
          | TOTAL ENERGY              -42.202091912425 Eh   |
          | GRADIENT NORM               0.002410097517 Eh/α |
          | HOMO-LUMO GAP               3.208636157753 eV   |
           -------------------------------------------------

 * finished run on 2024/06/05 at 19:58:08.139
