   * xtb version 6.6.1 (8d0f1dd) compiled by 'conda@1efc2f54142f' on 2023-08-01
          program call               : xtb xtbopt.xyz --opt crude --input .xc2 --gfn2

   ID    Z sym.   atoms
    1    6 C      1, 3, 5-7, 10, 11, 14
    2    7 N      2, 4, 9, 13
    3    8 O      8, 12
    4    1 H      15-25
########################################################################
[WARNING] Please study the warnings concerning your input carefully
-1- readin_getIntValue: could not parse ''
########################################################################

          :  Hamiltonian                  GFN2-xTB          :
 * total energy  :   -42.1582631 Eh     change       -0.6892265E-12 Eh
 * total energy  :   -42.1600600 Eh     change       -0.1796816E-02 Eh
 * total energy  :   -42.1607464 Eh     change       -0.6864540E-03 Eh
 * total energy  :   -42.1611504 Eh     change       -0.4040127E-03 Eh
   *** GEOMETRY OPTIMIZATION CONVERGED AFTER 4 ITERATIONS ***

 final structure:
================
25
 xtb: 6.6.1 (8d0f1dd)
C            3.39977951862093        0.87814901331937        0.30579277710260
N            2.38819431391866       -0.12487770403060        0.12168242791313
C            2.57421470622700       -1.43522101717651        0.00112681375903
N            1.37744511789121       -2.06312461910918       -0.12533849163805
C            0.40425161373653       -1.11638113731271       -0.07757464422924
C            1.03347153078733        0.12438142475384        0.07801868439310
C            0.30960908446580        1.32115249849303        0.18905444245047
O           -2.77061158865928        2.52068590181645       -0.66535085870965
N           -1.01231321617005        1.13608308425309        0.14789096147719
C           -1.86130420848670        2.33922597580800        0.34576614596951
C           -1.72230897189481       -0.06668919939179        0.01011916906194
O           -2.91388673131788       -0.13838185969418        0.02281151629526
N           -0.92860085317223       -1.23173055690459       -0.14287155853525
C           -1.59013855720001       -2.51231250747509       -0.29612967856789
H            3.83750044046083        0.79924123368440        1.30213986298077
H            4.19027371461823        0.76323122693420       -0.43490752167824
H            2.93285365706859        1.85520663481298        0.20012504955451
H            3.52305312329021       -1.93296898608378        0.00654720989917
H           -2.36329730060188        2.88091403149429       -1.46649518232509
H           -2.43737643364027        2.18986893059810        1.26988208068192
H           -1.15512171757705        3.16940244748394        0.47013774239398
H           -1.37614958008393       -3.15751614242863        0.55683602491181
H           -1.27226423162342       -2.99437899662558       -1.22093517726954
H           -2.66243062647910       -2.32478417044711       -0.33966878450699
H            1.25558870993242       -3.06093696516977       -0.22748739347907

          :  Hamiltonian                  GFN2-xTB          :
         :: total energy             -42.161150432224 Eh    ::
         :: gradient norm              0.006519392140 Eh/a0 ::
         :: HOMO-LUMO gap              1.750943487357 eV    ::
         :: SCC energy               -42.668594574937 Eh    ::
         :: -> dispersion             -0.022214868394 Eh    ::
         :: repulsion energy           0.507346726718 Eh    ::

    * Orbital Energies and Occupations

         #    Occupation            Energy/Eh            Energy/eV
      -------------------------------------------------------------
         1        2.0000           -0.9037216             -24.5915
       ...           ...                  ...                  ...
        25        2.0000           -0.6668592             -18.1462
        26        2.0000           -0.6589619             -17.9313
        27        2.0000           -0.6529493             -17.7677
        28        1.9999           -0.6329536             -17.2235
        29        1.9999           -0.6280168             -17.0892
        30        1.9998           -0.6216303             -16.9154
        31        1.9998           -0.6172483             -16.7962
        32        1.9993           -0.6006731             -16.3451
        33        1.9976           -0.5808460             -15.8056
        34        1.9969           -0.5768037             -15.6956
        35        1.9872           -0.5542796             -15.0827
        36        1.9855           -0.5523339             -15.0298
        37        1.7725           -0.5069225             -13.7941 (HOMO)
        38        0.2361           -0.4425765             -12.0431 (LUMO)
        39        0.0229           -0.4038504             -10.9893
        40        0.0027           -0.3695412             -10.0557
        41        0.0000           -0.2838515              -7.7240
        42                         -0.2003558              -5.4520
        43                         -0.1906858              -5.1888
        44                         -0.1348804              -3.6703
        45                         -0.1221152              -3.3229
        46                         -0.0722928              -1.9672
        47                         -0.0453555              -1.2342
        48                         -0.0384917              -1.0474
       ...                                ...                  ...
        67                          0.5538643              15.0714
      -------------------------------------------------------------
                  HL-Gap            0.0643460 Eh            1.7509 eV

     #   Z          covCN         q      C6AA      α(0)
     1   6 C        3.692    -0.090    22.405     6.773
     2   7 N        2.828     0.067    20.068     6.653
     3   6 C        3.050     0.050    26.837     8.496
     4   7 N        2.783    -0.064    22.473     7.041
     5   6 C        3.046     0.115    25.420     8.269
     6   6 C        3.120     0.021    27.361     8.567
     7   6 C        1.921    -0.122    34.523     9.489
     8   8 O        1.657    -0.380    20.461     6.106
     9   7 N        2.759    -0.039    21.996     6.966
    10   6 C        3.631     0.132    18.799     6.242
    11   6 C        2.720     0.318    21.602     7.609
    12   8 O        0.859    -0.337    20.455     6.064
    13   7 N        2.738    -0.051    22.233     7.003
    14   6 C        3.696    -0.070    22.012     6.711
    15   1 H        0.924     0.106     1.730     2.057
    16   1 H        0.925     0.103     1.753     2.071
    17   1 H        0.925     0.122     1.601     1.979
    18   1 H        0.926     0.117     1.638     2.001
    19   1 H        0.804     0.316     0.674     1.290
    20   1 H        0.923     0.099     1.798     2.097
    21   1 H        0.924     0.076     2.019     2.222
    22   1 H        0.924     0.081     1.972     2.196
    23   1 H        0.924     0.081     1.972     2.196
    24   1 H        0.925     0.125     1.575     1.962
    25   1 H        0.860     0.224     0.994     1.561

Wiberg/Mayer (AO) data.
largest (>0.10) Wiberg bond orders for each atom

     #   Z sym  total        # sym  WBO       # sym  WBO       # sym  WBO
 ---------------------------------------------------------------------------
     1   6 C    3.925 --     2 N    0.989    17 H    0.969    16 H    0.965
                            15 H    0.957
     2   7 N    3.644 --     3 C    1.387     6 C    1.133     1 C    0.989
     3   6 C    3.806 --     2 N    1.387     4 N    1.254    18 H    0.955
     4   7 N    3.584 --     3 C    1.254     5 C    1.202    25 H    0.920
     5   6 C    3.907 --     6 C    1.278    13 N    1.236     4 N    1.202
     6   6 C    3.896 --     5 C    1.278     7 C    1.240     2 N    1.133
     7   6 C    2.784 --     9 N    1.358     6 C    1.240
     8   8 O    2.025 --    10 C    1.059    19 H    0.884
     9   7 N    3.591 --     7 C    1.358    11 C    1.065    10 C    0.916
                            12 O    0.116
    10   6 C    3.918 --     8 O    1.059    21 H    0.957    20 H    0.948
                             9 N    0.916
    11   6 C    3.938 --    12 O    1.743     9 N    1.065    13 N    1.033
    12   8 O    2.079 --    11 C    1.743    13 N    0.133     9 N    0.116
    13   7 N    3.557 --     5 C    1.236    11 C    1.033    14 C    0.975
                            12 O    0.133
    14   6 C    3.927 --    13 N    0.975    23 H    0.971    22 H    0.970
                            24 H    0.965
    15   1 H    0.984 --     1 C    0.957
    16   1 H    0.986 --     1 C    0.965
    17   1 H    0.985 --     1 C    0.969
    18   1 H    0.985 --     3 C    0.955
    19   1 H    0.899 --     8 O    0.884
    20   1 H    0.985 --    10 C    0.948
    21   1 H    0.990 --    10 C    0.957
    22   1 H    0.991 --    14 C    0.970
    23   1 H    0.991 --    14 C    0.971
    24   1 H    0.984 --    14 C    0.965
    25   1 H    0.949 --     4 N    0.920
 ---------------------------------------------------------------------------

molecular dipole:
                 x           y           z       tot (Debye)
 q only:        3.086      -1.289      -0.107
   full:        3.421      -2.025      -0.235      10.122

           -------------------------------------------------
          | TOTAL ENERGY              -42.161150432224 Eh   |
          | GRADIENT NORM               0.006519392140 Eh/α |
          | HOMO-LUMO GAP               1.750943487357 eV   |
           -------------------------------------------------

 * finished run on 2024/06/05 at 19:57:59.015
