   * xtb version 6.6.1 (8d0f1dd) compiled by 'conda@1efc2f54142f' on 2023-08-01
          program call               : xtb xtbopt.xyz --opt crude --input .xc2 --gfn2

   ID    Z sym.   atoms
    1    6 C      1, 3, 5-7, 10, 11, 14
    2    7 N      2, 4, 9, 13
    3    8 O      8, 12
    4    1 H      15-25
########################################################################
[WARNING] Please study the warnings concerning your input carefully
-1- readin_getIntValue: could not parse ''
########################################################################

          :  Hamiltonian                  GFN2-xTB          :
 * total energy  :   -41.1745373 Eh     change       -0.7105427E-14 Eh
 * total energy  :   -42.1538638 Eh     change       -0.9793265E+00 Eh
 * total energy  :   -42.1774901 Eh     change       -0.2362636E-01 Eh
 * total energy  :   -42.1829800 Eh     change       -0.5489907E-02 Eh
 * total energy  :   -42.1834585 Eh     change       -0.4784443E-03 Eh
 * total energy  :   -42.1836263 Eh     change       -0.1678590E-03 Eh
 * total energy  :   -42.1837087 Eh     change       -0.8239766E-04 Eh
 * total energy  :   -42.1837658 Eh     change       -0.5709047E-04 Eh
   *** GEOMETRY OPTIMIZATION CONVERGED AFTER 8 ITERATIONS ***

 final structure:
================
25
 xtb: 6.6.1 (8d0f1dd)
C            3.07684066261012        0.14272557644433        0.80652517094636
N            2.30296225687863        0.54457975103604       -0.37429832661483
C            2.75125025395088       -0.87563077637852       -0.22206516346702
N            1.58196321266242       -1.64640217498878       -0.04912960176325
C            0.49309725461023       -0.80728414381037       -0.05368411691162
C            0.88067083329308        0.49427723524799       -0.25774442157675
C           -0.04826541216942        1.58886154166359       -0.35953285007592
O            0.24959935904752        2.73894784435587       -0.57571274076821
N           -1.36131035971009        1.14740910066465       -0.16978874667015
C           -2.41966770944599        2.14900769543931       -0.21573452979467
C           -1.78925503813810       -0.14099144637604        0.05938371567067
O           -2.94194663413181       -0.42922820501781        0.21168002746082
N           -0.78973119414851       -1.15075430206879        0.10518949550234
C           -1.20181316159249       -2.52452298839781        0.31683804904099
H            2.52511917070339        0.15341785146286        1.73695274574026
H            2.70429448015775        1.21999296001732       -1.03508165698949
H            4.08933522108393        0.51596863321383        0.87025436089921
H            3.52588770768767       -1.28258853292438       -0.86195499109958
H           -1.95429948944576        3.12023389590041       -0.36296139147476
H           -3.10240319149878        1.92882655304810       -1.03541228319954
H           -2.98124710710812        2.13285483793058        0.71728919006532
H           -0.67407071156559       -2.95101140443780        1.16891737530130
H           -1.01959118191669       -3.12349636445196       -0.57618183083681
H           -2.27222355031495       -2.51473310596052        0.52007866551459
H            1.53523584260349       -2.61222149001128       -0.33265452699884

          :  Hamiltonian                  GFN2-xTB          :
         :: total energy             -42.183765814810 Eh    ::
         :: gradient norm              0.008095465668 Eh/a0 ::
         :: HOMO-LUMO gap              3.879253556516 eV    ::
         :: SCC energy               -42.696572722277 Eh    ::
         :: -> dispersion             -0.022611843454 Eh    ::
         :: repulsion energy           0.512646641381 Eh    ::

    * Orbital Energies and Occupations

         #    Occupation            Energy/Eh            Energy/eV
      -------------------------------------------------------------
         1        2.0000           -0.9269883             -25.2246
       ...           ...                  ...                  ...
        25        2.0000           -0.6708782             -18.2555
        26        2.0000           -0.6698683             -18.2280
        27        2.0000           -0.6553250             -17.8323
        28        2.0000           -0.6454938             -17.5648
        29        2.0000           -0.6399631             -17.4143
        30        1.9998           -0.6183835             -16.8271
        31        1.9998           -0.6175649             -16.8048
        32        1.9990           -0.5888654             -16.0238
        33        1.9988           -0.5860020             -15.9459
        34        1.9965           -0.5687641             -15.4769
        35        1.9901           -0.5520941             -15.0232
        36        1.9889           -0.5502916             -14.9742
        37        1.9866           -0.5473413             -14.8939 (HOMO)
        38        0.0358           -0.4047814             -11.0147 (LUMO)
        39        0.0044           -0.3711746             -10.1002
        40        0.0003           -0.3282537              -8.9322
        41        0.0000           -0.2837520              -7.7213
        42        0.0000           -0.2643293              -7.1928
        43        0.0000           -0.2084581              -5.6724
        44                         -0.1658339              -4.5126
        45                         -0.1380322              -3.7560
        46                         -0.1177362              -3.2038
        47                         -0.0977008              -2.6586
        48                         -0.0721429              -1.9631
       ...                                ...                  ...
        67                          0.5679658              15.4551
      -------------------------------------------------------------
                  HL-Gap            0.1425599 Eh            3.8793 eV

     #   Z          covCN         q      C6AA      α(0)
     1   6 C        3.743    -0.041    21.386     6.597
     2   7 N        3.616     0.053    20.305     6.693
     3   6 C        3.839     0.093    19.014     6.203
     4   7 N        2.728    -0.144    24.111     7.293
     5   6 C        2.946     0.129    25.165     8.228
     6   6 C        2.984    -0.069    29.712     8.941
     7   6 C        2.764     0.268    22.472     7.763
     8   8 O        0.858    -0.388    21.442     6.208
     9   7 N        2.747    -0.090    22.999     7.123
    10   6 C        3.709    -0.060    21.800     6.673
    11   6 C        2.725     0.316    21.621     7.612
    12   8 O        0.859    -0.361    20.921     6.132
    13   7 N        2.741    -0.059    22.378     7.026
    14   6 C        3.697    -0.072    22.060     6.718
    15   1 H        0.925     0.132     1.522     1.929
    16   1 H        0.859     0.238     0.930     1.511
    17   1 H        0.926     0.128     1.549     1.946
    18   1 H        0.925     0.117     1.642     2.004
    19   1 H        0.925     0.111     1.688     2.031
    20   1 H        0.925     0.094     1.840     2.121
    21   1 H        0.925     0.095     1.831     2.116
    22   1 H        0.925     0.084     1.943     2.180
    23   1 H        0.924     0.080     1.977     2.199
    24   1 H        0.925     0.128     1.552     1.948
    25   1 H        0.860     0.218     1.021     1.583

Wiberg/Mayer (AO) data.
largest (>0.10) Wiberg bond orders for each atom

     #   Z sym  total        # sym  WBO       # sym  WBO       # sym  WBO
 ---------------------------------------------------------------------------
     1   6 C    3.872 --    17 H    0.963    15 H    0.961     3 C    0.956
                             2 N    0.887
     2   7 N    3.708 --     6 C    0.976    16 H    0.912     1 C    0.887
                             3 C    0.858
     3   6 C    3.893 --     4 N    1.071     1 C    0.956    18 H    0.954
                             2 N    0.858
     4   7 N    3.386 --     5 C    1.148     3 C    1.071    25 H    0.921
     5   6 C    3.941 --     6 C    1.400    13 N    1.243     4 N    1.148
     6   6 C    3.827 --     5 C    1.400     7 C    1.102     2 N    0.976
     7   6 C    3.956 --     8 O    1.679     6 C    1.102     9 N    1.083
     8   8 O    2.028 --     7 C    1.679     9 N    0.142
     9   7 N    3.555 --    11 C    1.142     7 C    1.083    10 C    0.967
                            12 O    0.145     8 O    0.142
    10   6 C    3.918 --    19 H    0.969    21 H    0.967     9 N    0.967
                            20 H    0.967
    11   6 C    3.957 --    12 O    1.711     9 N    1.142    13 N    1.014
    12   8 O    2.072 --    11 C    1.711     9 N    0.145    13 N    0.118
    13   7 N    3.564 --     5 C    1.243    11 C    1.014    14 C    0.975
                            12 O    0.118
    14   6 C    3.926 --    13 N    0.975    22 H    0.972    23 H    0.970
                            24 H    0.963
    15   1 H    0.983 --     1 C    0.961
    16   1 H    0.942 --     2 N    0.912
    17   1 H    0.983 --     1 C    0.963
    18   1 H    0.986 --     3 C    0.954
    19   1 H    0.987 --    10 C    0.969
    20   1 H    0.987 --    10 C    0.967
    21   1 H    0.987 --    10 C    0.967
    22   1 H    0.991 --    14 C    0.972
    23   1 H    0.991 --    14 C    0.970
    24   1 H    0.983 --    14 C    0.963
    25   1 H    0.951 --     4 N    0.921
 ---------------------------------------------------------------------------

molecular dipole:
                 x           y           z       tot (Debye)
 q only:        3.480      -1.696      -0.035
   full:        3.901      -1.855      -0.345      11.015

           -------------------------------------------------
          | TOTAL ENERGY              -42.183765814810 Eh   |
          | GRADIENT NORM               0.008095465668 Eh/α |
          | HOMO-LUMO GAP               3.879253556516 eV   |
           -------------------------------------------------

 * finished run on 2024/06/05 at 20:00:25.588
