   * xtb version 6.6.1 (8d0f1dd) compiled by 'conda@1efc2f54142f' on 2023-08-01
          program call               : xtb struc.xyz --opt loose --input .xc1 --gfn2

   ID    Z sym.   atoms
    1    6 C      1, 3, 5-7, 10, 11, 14
    2    7 N      2, 4, 9, 13
    3    8 O      8, 12
    4    1 H      15-25
constraining bond 3 16 to    5.1400000 Å, actual value:    2.7548643 Å

          :  Hamiltonian                  GFN2-xTB          :
 * total energy  :    -1.6172033 Eh     change       -0.6650680E-10 Eh
 * total energy  :   -21.2714864 Eh     change       -0.1965428E+02 Eh
 * total energy  :   -32.7552558 Eh     change       -0.1148377E+02 Eh
 * total energy  :   -39.1600289 Eh     change       -0.6404773E+01 Eh
 * total energy  :   -41.5502030 Eh     change       -0.2390174E+01 Eh
 * total energy  :   -41.8423760 Eh     change       -0.2921730E+00 Eh
 * total energy  :   -41.8531433 Eh     change       -0.1076735E-01 Eh
 * total energy  :   -41.8731576 Eh     change       -0.2001430E-01 Eh
 * total energy  :   -41.8938327 Eh     change       -0.2067512E-01 Eh
 * total energy  :   -41.9099040 Eh     change       -0.1607127E-01 Eh
 * total energy  :   -42.0873855 Eh     change       -0.8201328E-04 Eh
 * total energy  :   -42.0875105 Eh     change       -0.1250113E-03 Eh
 * total energy  :   -42.0875844 Eh     change       -0.7392204E-04 Eh
 * total energy  :   -42.0876677 Eh     change       -0.8332403E-04 Eh
 * total energy  :   -42.0877124 Eh     change       -0.4466306E-04 Eh
 * total energy  :   -42.0877505 Eh     change       -0.3808473E-04 Eh
 * total energy  :   -42.0877808 Eh     change       -0.3035358E-04 Eh
 * total energy  :   -42.0877833 Eh     change       -0.2474187E-05 Eh
 * total energy  :   -42.0878166 Eh     change       -0.3329929E-04 Eh
   *** GEOMETRY OPTIMIZATION CONVERGED AFTER 65 ITERATIONS ***

 final structure:
================
25
 xtb: 6.6.1 (8d0f1dd)
C            3.12775509212843        1.54586813371189       -0.02128615531195
N            2.37251636283957        0.36910601581109        0.00486482030586
C            2.48352755746092       -2.60774030395513        0.29781936292267
N            1.23973604752226       -2.31346351352232        0.21403894858226
C            0.51389222067429       -1.12123272992354        0.07082852148992
C            1.09887398172206        0.17644815894808        0.02889361148932
C            0.15174003166797        1.35620181812474        0.00910625697762
O            0.55559268908434        2.49398386647659        0.05420782923843
N           -1.17980554722926        1.05979710912839       -0.06775335807670
C           -2.13807694087310        2.15900247544208       -0.11130275904931
C           -1.73341262581400       -0.20074689258455       -0.11514817130778
O           -2.91588931780432       -0.37619774784385       -0.22097371985151
N           -0.83850782377827       -1.27800643865744       -0.02035185672345
C           -1.46155522199315       -2.59284500119078       -0.04443223748118
H            3.90018597106406        1.42346138012338       -0.78580438660621
H            2.58384853443963        2.50583728065266       -0.19696224243774
H            3.64550904501775        1.63481828535212        0.94087166980055
H            3.23798303288514       -1.83251734458699        0.25143460032820
H           -1.59040970025462        3.09764701634839       -0.11984048745097
H           -2.75332193348495        2.06765256966111       -1.00593482127995
H           -2.78970472038087        2.11077592674594        0.76081789156030
H           -1.33864764837969       -3.11258025020646        0.90762378260995
H           -1.09138963276948       -3.19355929327831       -0.87643842609038
H           -2.53007777529881       -2.43225111800434       -0.19664178996640
H            0.61006983565584       -3.12122086116962        0.27353473422901

          :  Hamiltonian                  GFN2-xTB          :
         :: total energy             -42.087816611606 Eh    ::
         :: gradient norm              0.003706733026 Eh/a0 ::
         :: HOMO-LUMO gap              0.191511226730 eV    ::
         :: SCC energy               -42.596397240819 Eh    ::
         :: -> dispersion             -0.022108458896 Eh    ::
         :: repulsion energy           0.508432855244 Eh    ::

    * Orbital Energies and Occupations

         #    Occupation            Energy/Eh            Energy/eV
      -------------------------------------------------------------
         1        2.0000           -0.8963824             -24.3918
       ...           ...                  ...                  ...
        25        1.9999           -0.6767053             -18.4141
        26        1.9998           -0.6678621             -18.1735
        27        1.9994           -0.6474772             -17.6188
        28        1.9993           -0.6434185             -17.5083
        29        1.9989           -0.6360120             -17.3068
        30        1.9986           -0.6324689             -17.2104
        31        1.9969           -0.6202689             -16.8784
        32        1.9942           -0.6101771             -16.6038
        33        1.9909           -0.6031314             -16.4120
        34        1.9837           -0.5938428             -16.1593
        35        1.9666           -0.5823598             -15.8468
        36        1.7392           -0.5478770             -14.9085
        37        1.2559           -0.5261206             -14.3165 (HOMO)
        38        1.0394           -0.5190827             -14.1250 (LUMO)
        39        0.0356           -0.4543340             -12.3631
        40        0.0015           -0.4041641             -10.9979
        41        0.0005           -0.3855867             -10.4923
        42        0.0000           -0.3029897              -8.2448
        43                         -0.2116318              -5.7588
        44                         -0.1754135              -4.7732
        45                         -0.1518080              -4.1309
        46                         -0.1015824              -2.7642
        47                         -0.0886963              -2.4135
        48                         -0.0566947              -1.5427
       ...                                ...                  ...
        67                          0.5388496              14.6628
      -------------------------------------------------------------
                  HL-Gap            0.0070379 Eh            0.1915 eV

     #   Z          covCN         q      C6AA      α(0)
     1   6 C        3.686    -0.053    21.729     6.673
     2   7 N        1.831    -0.118    24.325     7.309
     3   6 C        1.841    -0.061    32.823     9.255
     4   7 N        2.687     0.005    21.172     6.834
     5   6 C        2.833     0.089    26.016     8.358
     6   6 C        2.884     0.054    26.785     8.485
     7   6 C        2.769     0.268    22.469     7.763
     8   8 O        0.859    -0.323    20.203     6.026
     9   7 N        2.738    -0.065    22.495     7.044
    10   6 C        3.710    -0.063    21.851     6.680
    11   6 C        2.726     0.318    21.588     7.606
    12   8 O        0.860    -0.347    20.644     6.092
    13   7 N        2.743    -0.044    22.098     6.982
    14   6 C        3.702    -0.084    22.265     6.747
    15   1 H        0.924     0.121     1.604     1.980
    16   1 H        0.920     0.136     1.491     1.910
    17   1 H        0.924     0.126     1.563     1.955
    18   1 H        0.925     0.130     1.536     1.938
    19   1 H        0.925     0.115     1.653     2.011
    20   1 H        0.925     0.108     1.710     2.045
    21   1 H        0.925     0.106     1.733     2.059
    22   1 H        0.924     0.095     1.836     2.119
    23   1 H        0.924     0.094     1.837     2.119
    24   1 H        0.924     0.141     1.453     1.885
    25   1 H        0.859     0.249     0.886     1.474

Wiberg/Mayer (AO) data.
largest (>0.10) Wiberg bond orders for each atom

     #   Z sym  total        # sym  WBO       # sym  WBO       # sym  WBO
 ---------------------------------------------------------------------------
     1   6 C    3.865 --     2 N    1.109    15 H    0.918    17 H    0.902
                            16 H    0.879
     2   7 N    2.838 --     6 C    1.567     1 C    1.109
     3   6 C    2.675 --     4 N    1.628    18 H    0.907
     4   7 N    3.662 --     3 C    1.628     5 C    1.082    25 H    0.865
     5   6 C    3.666 --    13 N    1.217     6 C    1.206     4 N    1.082
     6   6 C    3.917 --     2 N    1.567     5 C    1.206     7 C    0.928
     7   6 C    3.894 --     8 O    1.702     9 N    1.164     6 C    0.928
     8   8 O    2.019 --     7 C    1.702     9 N    0.137
     9   7 N    3.549 --     7 C    1.164    11 C    1.107    10 C    0.960
                             8 O    0.137    12 O    0.119
    10   6 C    3.891 --    19 H    0.967     9 N    0.960    20 H    0.959
                            21 H    0.959
    11   6 C    3.939 --    12 O    1.696     9 N    1.107    13 N    1.052
    12   8 O    2.012 --    11 C    1.696     9 N    0.119    13 N    0.109
    13   7 N    3.482 --     5 C    1.217    11 C    1.052    14 C    0.978
                            12 O    0.109
    14   6 C    3.913 --    13 N    0.978    23 H    0.960    22 H    0.957
                            24 H    0.950
    15   1 H    0.948 --     1 C    0.918
    16   1 H    0.914 --     1 C    0.879
    17   1 H    0.943 --     1 C    0.902
    18   1 H    0.940 --     3 C    0.907
    19   1 H    0.984 --    10 C    0.967
    20   1 H    0.979 --    10 C    0.959
    21   1 H    0.979 --    10 C    0.959
    22   1 H    0.981 --    14 C    0.957
    23   1 H    0.982 --    14 C    0.960
    24   1 H    0.978 --    14 C    0.950
    25   1 H    0.917 --     4 N    0.865
 ---------------------------------------------------------------------------

molecular dipole:
                 x           y           z       tot (Debye)
 q only:        1.322      -1.521       0.119
   full:        1.215      -1.327       0.126       4.584

           -------------------------------------------------
          | TOTAL ENERGY              -42.087816611606 Eh   |
          | GRADIENT NORM               0.003706733026 Eh/α |
          | HOMO-LUMO GAP               0.191511226730 eV   |
           -------------------------------------------------

 * finished run on 2024/06/05 at 20:00:09.643
