   * xtb version 6.6.1 (8d0f1dd) compiled by 'conda@1efc2f54142f' on 2023-08-01
          program call               : xtb xtbopt.xyz --opt crude --input .xc2 --gfn2

   ID    Z sym.   atoms
    1    6 C      1, 3, 5-7, 10, 11, 14
    2    7 N      2, 4, 9, 13
    3    8 O      8, 12
    4    1 H      15-25
########################################################################
[WARNING] Please study the warnings concerning your input carefully
-1- readin_getIntValue: could not parse ''
########################################################################

          :  Hamiltonian                  GFN2-xTB          :
 * total energy  :   -42.0878340 Eh     change       -0.1833200E-10 Eh
 * total energy  :   -42.0910940 Eh     change       -0.3259989E-02 Eh
 * total energy  :   -42.0937288 Eh     change       -0.2634841E-02 Eh
 * total energy  :   -42.0941779 Eh     change       -0.4490796E-03 Eh
   *** GEOMETRY OPTIMIZATION CONVERGED AFTER 4 ITERATIONS ***

 final structure:
================
25
 xtb: 6.6.1 (8d0f1dd)
C            3.16142417801618        1.39424637819414        0.01175473991414
N            2.35055924372891        0.25943993053669        0.03088318378644
C            2.55578027024900       -2.31681943964442        0.25624295603112
N            1.27367508121924       -2.23324234987791        0.19657984826965
C            0.46052975846267       -1.11181944128379        0.06787851890548
C            1.06312168214297        0.16212936489013        0.03188617466844
C            0.14462441744099        1.35492486803000       -0.00440393319493
O            0.56446626520354        2.48758443321382        0.02712214020579
N           -1.19049922055218        1.06155130639382       -0.07529875717499
C           -2.14202908012322        2.16663440505108       -0.11983706741915
C           -1.76315659095169       -0.19623711737692       -0.10873121332366
O           -2.94826941637259       -0.35894743212898       -0.20287916745958
N           -0.88165476850864       -1.28404107941969       -0.01749067371011
C           -1.48379953598299       -2.60526181878153       -0.03767030505992
H            3.92398058066748        1.27974478368808       -0.76437639172429
H            2.57493914187723        2.30269851290999       -0.16668529044674
H            3.68009169878236        1.49439654150959        0.97120547754064
H            3.20001835908913       -1.44150198749769        0.20849553941234
H           -1.58909372937313        3.10218132025074       -0.13176780269671
H           -2.76021257101963        2.07712333727552       -1.01264677511913
H           -2.79208551982008        2.12386514853552        0.75408186747018
H           -1.33495501916741       -3.12216868563785        0.91254532158804
H           -1.10096442079653       -3.19796971793158       -0.87007318509021
H           -2.55664358542487       -2.46467315190205       -0.18175436195503
H            0.75058429531498       -3.11559956739358        0.25611077448279

          :  Hamiltonian                  GFN2-xTB          :
         :: total energy             -42.094177929492 Eh    ::
         :: gradient norm              0.009740968387 Eh/a0 ::
         :: HOMO-LUMO gap              0.136765608988 eV    ::
         :: SCC energy               -42.607855744106 Eh    ::
         :: -> dispersion             -0.022356655973 Eh    ::
         :: repulsion energy           0.513546082229 Eh    ::

    * Orbital Energies and Occupations

         #    Occupation            Energy/Eh            Energy/eV
      -------------------------------------------------------------
         1        2.0000           -0.8956662             -24.3723
       ...           ...                  ...                  ...
        25        1.9999           -0.6779982             -18.4493
        26        1.9999           -0.6768930             -18.4192
        27        1.9995           -0.6470516             -17.6072
        28        1.9993           -0.6424518             -17.4820
        29        1.9991           -0.6391410             -17.3919
        30        1.9987           -0.6325895             -17.2136
        31        1.9970           -0.6196512             -16.8616
        32        1.9946           -0.6103512             -16.6085
        33        1.9919           -0.6039569             -16.4345
        34        1.9855           -0.5947111             -16.1829
        35        1.9668           -0.5814438             -15.8219
        36        1.8586           -0.5576160             -15.1735
        37        1.1601           -0.5219360             -14.2026 (HOMO)
        38        1.0028           -0.5169100             -14.0658 (LUMO)
        39        0.0444           -0.4568911             -12.4326
        40        0.0017           -0.4046750             -11.0118
        41        0.0005           -0.3861853             -10.5086
        42        0.0000           -0.3012972              -8.1987
        43                         -0.2086207              -5.6769
        44                         -0.1691741              -4.6035
        45                         -0.1484766              -4.0403
        46                         -0.1002440              -2.7278
        47                         -0.0821596              -2.2357
        48                         -0.0438119              -1.1922
       ...                                ...                  ...
        67                          0.5395067              14.6807
      -------------------------------------------------------------
                  HL-Gap            0.0050260 Eh            0.1368 eV

     #   Z          covCN         q      C6AA      α(0)
     1   6 C        3.692    -0.055    21.753     6.674
     2   7 N        1.838    -0.119    24.368     7.315
     3   6 C        1.847    -0.068    32.998     9.279
     4   7 N        2.688     0.011    21.061     6.816
     5   6 C        2.854     0.088    26.037     8.363
     6   6 C        2.892     0.049    26.904     8.504
     7   6 C        2.767     0.270    22.447     7.759
     8   8 O        0.858    -0.325    20.240     6.032
     9   7 N        2.738    -0.067    22.538     7.051
    10   6 C        3.710    -0.063    21.845     6.679
    11   6 C        2.725     0.318    21.598     7.608
    12   8 O        0.860    -0.345    20.615     6.087
    13   7 N        2.740    -0.042    22.056     6.975
    14   6 C        3.700    -0.080    22.199     6.738
    15   1 H        0.924     0.117     1.639     2.002
    16   1 H        0.924     0.136     1.493     1.911
    17   1 H        0.924     0.121     1.605     1.981
    18   1 H        0.925     0.156     1.349     1.816
    19   1 H        0.925     0.115     1.655     2.012
    20   1 H        0.925     0.108     1.712     2.046
    21   1 H        0.925     0.106     1.735     2.060
    22   1 H        0.924     0.093     1.851     2.127
    23   1 H        0.924     0.092     1.857     2.131
    24   1 H        0.924     0.137     1.480     1.902
    25   1 H        0.859     0.248     0.893     1.480

Wiberg/Mayer (AO) data.
largest (>0.10) Wiberg bond orders for each atom

     #   Z sym  total        # sym  WBO       # sym  WBO       # sym  WBO
 ---------------------------------------------------------------------------
     1   6 C    3.874 --     2 N    1.095    15 H    0.924    17 H    0.911
                            16 H    0.885
     2   7 N    2.901 --     6 C    1.537     1 C    1.095     3 C    0.108
     3   6 C    2.729 --     4 N    1.614    18 H    0.858     2 N    0.108
     4   7 N    3.668 --     3 C    1.614     5 C    1.091    25 H    0.874
     5   6 C    3.698 --     6 C    1.221    13 N    1.215     4 N    1.091
     6   6 C    3.917 --     2 N    1.537     5 C    1.221     7 C    0.937
     7   6 C    3.899 --     8 O    1.698     9 N    1.163     6 C    0.937
     8   8 O    2.038 --     7 C    1.698     9 N    0.140
     9   7 N    3.551 --     7 C    1.163    11 C    1.102    10 C    0.961
                             8 O    0.140    12 O    0.120
    10   6 C    3.892 --    19 H    0.967     9 N    0.961    20 H    0.959
                            21 H    0.959
    11   6 C    3.940 --    12 O    1.700     9 N    1.102    13 N    1.052
    12   8 O    2.014 --    11 C    1.700     9 N    0.120    13 N    0.110
    13   7 N    3.482 --     5 C    1.215    11 C    1.052    14 C    0.977
                            12 O    0.110
    14   6 C    3.914 --    13 N    0.977    23 H    0.962    22 H    0.960
                            24 H    0.955
    15   1 H    0.954 --     1 C    0.924
    16   1 H    0.928 --     1 C    0.885
    17   1 H    0.947 --     1 C    0.911
    18   1 H    0.937 --     3 C    0.858
    19   1 H    0.984 --    10 C    0.967
    20   1 H    0.979 --    10 C    0.959
    21   1 H    0.979 --    10 C    0.959
    22   1 H    0.981 --    14 C    0.960
    23   1 H    0.982 --    14 C    0.962
    24   1 H    0.979 --    14 C    0.955
    25   1 H    0.918 --     4 N    0.874
 ---------------------------------------------------------------------------

molecular dipole:
                 x           y           z       tot (Debye)
 q only:        1.413      -1.634       0.125
   full:        1.264      -1.508       0.134       5.013

           -------------------------------------------------
          | TOTAL ENERGY              -42.094177929492 Eh   |
          | GRADIENT NORM               0.009740968387 Eh/α |
          | HOMO-LUMO GAP               0.136765608988 eV   |
           -------------------------------------------------

 * finished run on 2024/06/05 at 20:00:09.865
