   * xtb version 6.6.1 (8d0f1dd) compiled by 'conda@1efc2f54142f' on 2023-08-01
          program call               : xtb struc.xyz --opt loose --input .xc1 --gfn2

   ID    Z sym.   atoms
    1    6 C      1, 3, 5-7, 10, 11, 14
    2    7 N      2, 4, 9, 13
    3    8 O      8, 12
    4    1 H      15-25
constraining bond 1 5 to    6.0000000 Å, actual value:    3.6144824 Å

          :  Hamiltonian                  GFN2-xTB          :
 * total energy  :   -32.0869416 Eh     change       -0.6650680E-10 Eh
 * total energy  :   -36.1079832 Eh     change       -0.4021042E+01 Eh
 * total energy  :   -38.9570301 Eh     change       -0.2849047E+01 Eh
 * total energy  :   -40.7315407 Eh     change       -0.1774511E+01 Eh
 * total energy  :   -41.4626299 Eh     change       -0.7310892E+00 Eh
 * total energy  :   -41.6181070 Eh     change       -0.1554771E+00 Eh
 * total energy  :   -41.6599384 Eh     change       -0.4183141E-01 Eh
 * total energy  :   -41.7367390 Eh     change       -0.7680058E-01 Eh
 * total energy  :   -41.8002441 Eh     change       -0.6350519E-01 Eh
 * total energy  :   -41.8319798 Eh     change       -0.3173564E-01 Eh
 * total energy  :   -42.1349802 Eh     change       -0.2087797E-03 Eh
 * total energy  :   -42.1351220 Eh     change       -0.1418156E-03 Eh
 * total energy  :   -42.1354250 Eh     change       -0.3029456E-03 Eh
 * total energy  :   -42.1357029 Eh     change       -0.2779210E-03 Eh
 * total energy  :   -42.1359445 Eh     change       -0.2416719E-03 Eh
 * total energy  :   -42.1360760 Eh     change       -0.1314065E-03 Eh
 * total energy  :   -42.1361314 Eh     change       -0.5546630E-04 Eh
 * total energy  :   -42.1361327 Eh     change       -0.1239991E-05 Eh
 * total energy  :   -42.1361802 Eh     change       -0.4758170E-04 Eh
   *** GEOMETRY OPTIMIZATION CONVERGED AFTER 54 ITERATIONS ***

 final structure:
================
25
 xtb: 6.6.1 (8d0f1dd)
C            3.90760304807561        3.07476976593435        0.06318764163783
N            2.20669929559123       -0.79437828178767       -0.03068149228012
C            2.21464221497381       -2.09305418394186       -0.02294835250521
N            0.94891832798794       -2.61819613216773       -0.01398235081528
C            0.09941806771988       -1.56065145819353       -0.01623910313295
C            0.90646099213167       -0.41466253774093       -0.02723321952753
C            0.31607998274853        0.90375473528878       -0.02526595779311
O            0.91455370931736        1.95660413998326       -0.03298311800186
N           -1.07866974695028        0.85069016991246       -0.00931301875547
C           -1.80289186946627        2.11115557747864        0.00399127420594
C           -1.88391022739495       -0.27585879293739       -0.00677761736960
O           -3.08358986915660       -0.19963116420348       -0.00090034617552
N           -1.24350067963801       -1.52634203705132       -0.00922405889064
C           -2.04967922985464       -2.72828883734507       -0.00642894869523
H            4.35685149234467        3.35552773808343        0.99531632590277
H            4.50236784208758        3.07717000623219       -0.83327889061642
H            2.86855355795009        2.79639662963747        0.02504640979932
H            3.10058411995525       -2.69555771212983       -0.02326125328178
H           -1.07780658627894        2.92127641690911        0.00068937745486
H           -2.44944746850862        2.17803877596746       -0.87147125154308
H           -2.43089288040065        2.16782594971561        0.89371903364840
H           -1.83991195180480       -3.32456847611399        0.88257107776593
H           -1.85449314260774       -3.31868148621155       -0.90271889440113
H           -3.09661443114149       -2.42676262152883        0.00303621959742
H            0.70910694642122       -3.59833764219130       -0.00367786832677

          :  Hamiltonian                  GFN2-xTB          :
         :: total energy             -42.136180239694 Eh    ::
         :: gradient norm              0.003108671031 Eh/a0 ::
         :: HOMO-LUMO gap              1.099539760759 eV    ::
         :: SCC energy               -42.661742987439 Eh    ::
         :: -> dispersion             -0.020844507738 Eh    ::
         :: repulsion energy           0.525491690616 Eh    ::

    * Orbital Energies and Occupations

         #    Occupation            Energy/Eh            Energy/eV
      -------------------------------------------------------------
         1        2.0000           -0.8856086             -24.0986
       ...           ...                  ...                  ...
        25        1.9996           -0.6542823             -17.8039
        26        1.9988           -0.6367210             -17.3261
        27        1.9981           -0.6287170             -17.1083
        28        1.9978           -0.6263916             -17.0450
        29        1.9973           -0.6233355             -16.9618
        30        1.9969           -0.6211073             -16.9012
        31        1.9930           -0.6082660             -16.5518
        32        1.9926           -0.6073642             -16.5272
        33        1.9738           -0.5872610             -15.9802
        34        1.9221           -0.5695589             -15.4985
        35        1.9142           -0.5679715             -15.4553
        36        1.8721           -0.5612883             -15.2734
        37        1.7107           -0.5469375             -14.8829 (HOMO)
        38        0.6309           -0.5065301             -13.7834 (LUMO)
        39        0.0021           -0.4101027             -11.1595
        40        0.0006           -0.3909115             -10.6372
        41        0.0001           -0.3613730              -9.8335
        42        0.0000           -0.2803343              -7.6283
        43                         -0.1987925              -5.4094
        44                         -0.1565153              -4.2590
        45                         -0.1312701              -3.5720
        46                         -0.0677446              -1.8434
        47                         -0.0456651              -1.2426
        48                         -0.0298951              -0.8135
       ...                                ...                  ...
        67                          0.5499468              14.9648
      -------------------------------------------------------------
                  HL-Gap            0.0404073 Eh            1.0995 eV

     #   Z          covCN         q      C6AA      α(0)
     1   6 C        2.778    -0.068    29.683     8.924
     2   7 N        1.904    -0.158    25.207     7.444
     3   6 C        3.155     0.105    25.396     8.240
     4   7 N        2.789    -0.080    22.787     7.090
     5   6 C        3.055     0.115    25.417     8.268
     6   6 C        3.204     0.024    26.894     8.448
     7   6 C        2.764     0.276    22.340     7.740
     8   8 O        0.858    -0.343    20.571     6.081
     9   7 N        2.745    -0.075    22.695     7.075
    10   6 C        3.710    -0.061    21.817     6.675
    11   6 C        2.732     0.319    21.581     7.606
    12   8 O        0.860    -0.344    20.601     6.085
    13   7 N        2.737    -0.042    22.060     6.976
    14   6 C        3.697    -0.070    22.021     6.712
    15   1 H        0.926     0.137     1.483     1.904
    16   1 H        0.926     0.137     1.483     1.905
    17   1 H        0.926     0.162     1.313     1.792
    18   1 H        0.926     0.110     1.697     2.037
    19   1 H        0.925     0.116     1.649     2.008
    20   1 H        0.924     0.108     1.714     2.047
    21   1 H        0.924     0.107     1.718     2.050
    22   1 H        0.924     0.091     1.866     2.136
    23   1 H        0.924     0.092     1.863     2.134
    24   1 H        0.925     0.128     1.553     1.949
    25   1 H        0.860     0.216     1.029     1.589

Wiberg/Mayer (AO) data.
largest (>0.10) Wiberg bond orders for each atom

     #   Z sym  total        # sym  WBO       # sym  WBO       # sym  WBO
 ---------------------------------------------------------------------------
     1   6 C    2.921 --    15 H    0.978    16 H    0.978    17 H    0.958
     2   7 N    3.001 --     3 C    1.559     6 C    1.270
     3   6 C    3.848 --     2 N    1.559     4 N    1.212    18 H    0.955
     4   7 N    3.577 --     5 C    1.224     3 C    1.212    25 H    0.924
     5   6 C    3.895 --     6 C    1.275     4 N    1.224    13 N    1.212
     6   6 C    3.834 --     5 C    1.275     2 N    1.270     7 C    1.070
     7   6 C    3.945 --     8 O    1.671     9 N    1.101     6 C    1.070
     8   8 O    1.971 --     7 C    1.671     9 N    0.126
     9   7 N    3.514 --    11 C    1.120     7 C    1.101    10 C    0.976
                             8 O    0.126    12 O    0.123
    10   6 C    3.886 --     9 N    0.976    19 H    0.963    21 H    0.952
                            20 H    0.952
    11   6 C    3.954 --    12 O    1.687     9 N    1.120    13 N    1.054
    12   8 O    1.995 --    11 C    1.687     9 N    0.123    13 N    0.108
    13   7 N    3.496 --     5 C    1.212    11 C    1.054    14 C    0.977
                            12 O    0.108
    14   6 C    3.910 --    13 N    0.977    24 H    0.962    22 H    0.962
                            23 H    0.962
    15   1 H    0.980 --     1 C    0.978
    16   1 H    0.980 --     1 C    0.978
    17   1 H    0.971 --     1 C    0.958
    18   1 H    0.986 --     3 C    0.955
    19   1 H    0.982 --    10 C    0.963
    20   1 H    0.969 --    10 C    0.952
    21   1 H    0.970 --    10 C    0.952
    22   1 H    0.979 --    14 C    0.962
    23   1 H    0.979 --    14 C    0.962
    24   1 H    0.982 --    14 C    0.962
    25   1 H    0.952 --     4 N    0.924
 ---------------------------------------------------------------------------

molecular dipole:
                 x           y           z       tot (Debye)
 q only:        1.864      -0.969       0.045
   full:        1.737      -1.654       0.048       6.097

           -------------------------------------------------
          | TOTAL ENERGY              -42.136180239694 Eh   |
          | GRADIENT NORM               0.003108671031 Eh/α |
          | HOMO-LUMO GAP               1.099539760759 eV   |
           -------------------------------------------------

 * finished run on 2024/06/05 at 19:57:53.199
