   * xtb version 6.6.1 (8d0f1dd) compiled by 'conda@1efc2f54142f' on 2023-08-01
          program call               : xtb struc.xyz --opt loose --input .xc1 --gfn2

   ID    Z sym.   atoms
    1    7 N      1, 17
    2    6 C      2-6, 8, 9, 11-16, 18-23, 25, 26, 28-33
    3    8 O      7, 10, 24, 27
    4    1 H      34-72
constraining bond 19 53 to    5.1400000 Å, actual value:    2.7155995 Å

          :  Hamiltonian                  GFN2-xTB          :
 * total energy  :   -98.3546456 Eh     change       -0.4035485E-08 Eh
 * total energy  :   -98.7029212 Eh     change       -0.3482756E+00 Eh
 * total energy  :   -98.9322623 Eh     change       -0.2293411E+00 Eh
 * total energy  :   -99.0516655 Eh     change       -0.1194033E+00 Eh
 * total energy  :   -99.1110775 Eh     change       -0.5941196E-01 Eh
 * total energy  :   -99.1407792 Eh     change       -0.2970169E-01 Eh
 * total energy  :   -99.1597399 Eh     change       -0.1896075E-01 Eh
 * total energy  :   -99.1766604 Eh     change       -0.1692049E-01 Eh
 * total energy  :   -99.1928923 Eh     change       -0.1623190E-01 Eh
 * total energy  :   -99.2072538 Eh     change       -0.1436153E-01 Eh
 * total energy  :   -99.2379648 Eh     change       -0.1831628E-03 Eh
 * total energy  :   -99.2381725 Eh     change       -0.2076505E-03 Eh
 * total energy  :   -99.2384728 Eh     change       -0.3003299E-03 Eh
 * total energy  :   -99.2387975 Eh     change       -0.3246915E-03 Eh
 * total energy  :   -99.2389735 Eh     change       -0.1759484E-03 Eh
 * total energy  :   -99.2389405 Eh     change        0.3295837E-04 Eh
 * total energy  :   -99.2388741 Eh     change        0.6637138E-04 Eh
 * total energy  :   -99.2392322 Eh     change       -0.3580920E-03 Eh
 * total energy  :   -99.2392799 Eh     change       -0.4765441E-04 Eh
   *** GEOMETRY OPTIMIZATION CONVERGED AFTER 35 ITERATIONS ***

 final structure:
================
72
 xtb: 6.6.1 (8d0f1dd)
N           -1.91588534561519        2.87199942798993        2.21843644436169
C           -1.86407385689563        2.15206604664017        1.19980240997972
C           -3.00580278743829        1.93602871996758        0.24552833639194
C           -3.47130960947194        0.49028549603566        0.32859572442159
C           -4.39521979312993        0.00512076259835       -0.59932096261023
C           -4.86950322121734       -1.29450474600877       -0.53739901580457
O           -5.77223736008584       -1.83550822006407       -1.38157501479906
C           -6.39275044552156       -1.01678650173746       -2.34486388158726
C           -4.39582125117712       -2.16461404334240        0.48147629199999
O           -4.90263984703097       -3.41385830019531        0.46102464818177
C           -4.54327542557708       -4.31419225300801        1.48298094733953
C           -3.47900167344709       -1.67706349081764        1.39877333075635
C           -3.02692805610130       -0.36526044505571        1.32442389142646
C           -2.44014336273176        2.23392870199721       -1.16814649021309
C           -1.51852603407699        1.13766967418786       -1.73270422648488
C           -0.18816731661918        1.08542511108601       -1.08696920541974
N            0.44098056981967       -0.02106418251715       -0.71298238383478
C            1.81752739331275        0.02336665201102       -0.28072339208852
C            2.77446647477217       -0.56410085629863       -1.33655435027102
C            4.18387244215584       -0.37412258962294       -0.89601593733635
C            4.80062114506605        0.83045244832280       -1.04883701063925
C            6.03737581179656        1.12822231900747       -0.67628546733676
C            6.86622225655439        0.21447695703272       -0.05663244788782
O            8.12624539405591        0.37306082554447        0.36609024878930
C            8.76179046024389        1.61156064554657        0.13542673924028
C            6.26958367368716       -1.07286495323217        0.15435446121537
O            7.08680112451885       -1.95246948093651        0.77576769433859
C            6.61669662067927       -3.25073887301925        1.05124833689624
C            4.96887379201468       -1.34215294445907       -0.25416687704857
C           -0.19091425053442       -1.31778477233627       -0.76745347020517
C           -4.22941594388086        2.85699763084329        0.53073254577102
C           -4.87640700004965        2.52721927364626        1.87386890188084
C           -3.89057630668728        4.34387630512009        0.47443538848020
H           -4.76097224061646        0.66008616598210       -1.37246142518103
H           -6.90544614596695       -0.16927204394699       -1.88011094395504
H           -7.12443375048033       -1.65236358713651       -2.83975672088929
H           -5.67487322406539       -0.65036203459906       -3.08596666458029
H           -4.82770519720672       -3.93512899490256        2.46905581956109
H           -5.09573133923193       -5.22818697989154        1.27478459870794
H           -3.46991794883070       -4.52931462944770        1.46956742001628
H           -3.11715733101413       -2.30741962517801        2.19466766066012
H           -2.33987618410020       -0.01306630906754        2.07819143289143
H           -3.27364446993561        2.36021880718804       -1.85811466500993
H           -1.89358053176851        3.17707975721375       -1.13612041222048
H           -2.02569269349718        0.17555855729724       -1.68862005106770
H           -1.35468297849454        1.38130940578307       -2.79061810815067
H           -0.94908094514903        1.62652357104470        0.86327930066066
H            0.38203780031166        2.00178537502005       -1.04527011796692
H            1.92034637617121       -0.53784334799153        0.65311030368040
H            2.10466223631121        1.05939267877699       -0.09197279327083
H            2.61464054974929       -0.04632337190801       -2.28295810329896
H            2.55863250897495       -1.62420840015043       -1.48065472232716
H            6.20675427152429        3.32691023909429       -1.24120789242933
H            6.29402561392964        2.32507211775301       -0.93503071949138
H            8.25306698928159        2.42463569705291        0.66219972431942
H            8.80684853983215        1.84251941143035       -0.93320524076802
H            9.77125871332876        1.50144759250247        0.52664664878754
H            7.43826045451332       -3.75670019286627        1.55454000843984
H            5.74561406497388       -3.22889986405659        1.71398921978738
H            6.36741897242802       -3.79067632474136        0.13266721431782
H            4.54595501048816       -2.32130631122682       -0.09325528424680
H           -0.36347738939953       -1.62942556123140       -1.79952060560499
H           -1.14821001004654       -1.29929407758958       -0.24089094491081
H            0.45287045957298       -2.05001664864903       -0.28768598246707
H           -4.96347532592969        2.64817146973886       -0.25583949873083
H           -4.18597002491831        2.74329406404076        2.68257008708356
H           -5.16480515663363        1.48019914597125        1.92570085238404
H           -5.76769742749568        3.13437182621007        2.00720861000392
H           -3.15579738995520        4.59186939478053        1.23375804997156
H           -3.51274023897317        4.63857765782556       -0.50076283430015
H           -4.79005778573148        4.92114700162314        0.67080802351740
H           -1.07330950632047        2.96910754583665        2.77620739077191

          :  Hamiltonian                  GFN2-xTB          :
         :: total energy             -99.239279869901 Eh    ::
         :: gradient norm              0.002315268929 Eh/a0 ::
         :: HOMO-LUMO gap              1.204778929114 eV    ::
         :: SCC energy              -100.615931775186 Eh    ::
         :: -> dispersion             -0.075257307726 Eh    ::
         :: repulsion energy           1.374967153134 Eh    ::

    * Orbital Energies and Occupations

         #    Occupation            Energy/Eh            Energy/eV
      -------------------------------------------------------------
         1        2.0000           -0.8121826             -22.1006
       ...           ...                  ...                  ...
        78        1.9988           -0.5333599             -14.5135
        79        1.9983           -0.5281265             -14.3711
        80        1.9982           -0.5274568             -14.3528
        81        1.9975           -0.5222272             -14.2105
        82        1.9959           -0.5143264             -13.9955
        83        1.9952           -0.5116954             -13.9239
        84        1.9943           -0.5090291             -13.8514
        85        1.9833           -0.4920525             -13.3894
        86        1.9813           -0.4901930             -13.3388
        87        1.9373           -0.4707084             -12.8086
        88        1.8747           -0.4592150             -12.4959
        89        1.8585           -0.4571448             -12.4395
        90        1.5996           -0.4383033             -11.9268 (HOMO)
        91        0.3921           -0.3940285             -10.7221 (LUMO)
        92        0.3770           -0.3932582             -10.7011
        93        0.0143           -0.3382061              -9.2031
        94        0.0039           -0.3175910              -8.6421
        95        0.0036           -0.3163523              -8.6084
        96        0.0030           -0.3132338              -8.5235
        97        0.0014           -0.3011644              -8.1951
        98        0.0000           -0.1906255              -5.1872
        99        0.0000           -0.1812299              -4.9315
       100                         -0.1347867              -3.6677
       101                         -0.0682958              -1.8584
       ...                                ...                  ...
       171                          0.6186635              16.8347
      -------------------------------------------------------------
                  HL-Gap            0.0442748 Eh            1.2048 eV

     #   Z          covCN         q      C6AA      α(0)
     1   7 N        1.774    -0.268    27.780     7.805
     2   6 C        2.827     0.102    25.740     8.313
     3   6 C        3.907     0.006    20.415     6.422
     4   6 C        2.974     0.002    27.974     8.676
     5   6 C        2.920    -0.080    30.002     8.982
     6   6 C        2.862     0.129    25.166     8.223
     7   8 O        1.706    -0.230    17.821     5.700
     8   6 C        3.644     0.028    20.447     6.500
     9   6 C        2.864     0.128    25.189     8.227
    10   8 O        1.706    -0.229    17.798     5.696
    11   6 C        3.645     0.027    20.453     6.500
    12   6 C        2.914    -0.075    29.871     8.962
    13   6 C        2.921    -0.054    29.330     8.881
    14   6 C        3.812    -0.065    21.730     6.635
    15   6 C        3.802    -0.069    21.828     6.652
    16   6 C        2.843     0.008    27.838     8.647
    17   7 N        2.729     0.014    21.018     6.809
    18   6 C        3.757    -0.017    20.933     6.523
    19   6 C        3.809    -0.067    21.777     6.643
    20   6 C        2.971     0.015    27.666     8.628
    21   6 C        2.035    -0.096    33.636     9.367
    22   6 C        2.846    -0.053    29.298     8.871
    23   6 C        2.873     0.146    24.829     8.168
    24   8 O        1.705    -0.216    17.591     5.663
    25   6 C        3.649     0.025    20.466     6.499
    26   6 C        2.872     0.125    25.246     8.236
    27   8 O        1.706    -0.228    17.774     5.692
    28   6 C        3.644     0.027    20.456     6.501
    29   6 C        2.939    -0.081    30.022     8.986
    30   6 C        3.700    -0.071    22.029     6.712
    31   6 C        3.853    -0.007    20.673     6.467
    32   6 C        3.756    -0.118    22.823     6.812
    33   6 C        3.755    -0.119    22.833     6.813
    34   1 H        0.926     0.052     2.295     2.369
    35   1 H        0.924     0.054     2.274     2.358
    36   1 H        0.925     0.081     1.967     2.194
    37   1 H        0.924     0.047     2.353     2.399
    38   1 H        0.924     0.055     2.258     2.350
    39   1 H        0.925     0.081     1.968     2.194
    40   1 H        0.924     0.048     2.351     2.398
    41   1 H        0.926     0.052     2.299     2.371
    42   1 H        0.926     0.038     2.470     2.458
    43   1 H        0.925     0.061     2.192     2.316
    44   1 H        0.924     0.054     2.272     2.357
    45   1 H        0.925     0.067     2.124     2.279
    46   1 H        0.924     0.081     1.970     2.195
    47   1 H        0.922     0.005     2.970     2.695
    48   1 H        0.926     0.072     2.068     2.249
    49   1 H        0.924     0.066     2.129     2.282
    50   1 H        0.924     0.073     2.057     2.243
    51   1 H        0.924     0.065     2.147     2.291
    52   1 H        0.924     0.053     2.283     2.363
    53   1 H        0.007    -0.036     9.387     5.602
    54   1 H        0.848     0.117     1.653     2.015
    55   1 H        0.924     0.056     2.250     2.346
    56   1 H        0.924     0.057     2.232     2.336
    57   1 H        0.925     0.084     1.936     2.176
    58   1 H        0.925     0.083     1.949     2.183
    59   1 H        0.924     0.049     2.333     2.389
    60   1 H        0.924     0.053     2.285     2.364
    61   1 H        0.926     0.059     2.205     2.322
    62   1 H        0.924     0.077     2.011     2.218
    63   1 H        0.924     0.080     1.981     2.201
    64   1 H        0.925     0.080     1.978     2.199
    65   1 H        0.924     0.037     2.489     2.467
    66   1 H        0.925     0.068     2.103     2.268
    67   1 H        0.925     0.035     2.514     2.480
    68   1 H        0.925     0.051     2.306     2.375
    69   1 H        0.925     0.062     2.179     2.309
    70   1 H        0.925     0.035     2.522     2.483
    71   1 H        0.925     0.054     2.268     2.355
    72   1 H        0.860     0.157     1.355     1.823

Wiberg/Mayer (AO) data.
largest (>0.10) Wiberg bond orders for each atom

     #   Z sym  total        # sym  WBO       # sym  WBO       # sym  WBO
 ---------------------------------------------------------------------------
     1   7 N    3.039 --     2 C    1.957    72 H    0.942
     2   6 C    3.930 --     1 N    1.957     3 C    0.995    47 H    0.901
     3   6 C    3.976 --     2 C    0.995     4 C    0.970    14 C    0.957
                            31 C    0.943
     4   6 C    3.950 --    13 C    1.414     5 C    1.368     3 C    0.970
     5   6 C    3.963 --     6 C    1.402     4 C    1.368    34 H    0.958
     6   6 C    3.906 --     5 C    1.402     9 C    1.222     7 O    1.099
     7   8 O    2.254 --     6 C    1.099     8 C    0.978
     8   6 C    3.932 --     7 O    0.978    36 H    0.977    35 H    0.974
                            37 H    0.973
     9   6 C    3.902 --    12 C    1.393     6 C    1.222    10 O    1.101
    10   8 O    2.252 --     9 C    1.101    11 C    0.978
    11   6 C    3.932 --    10 O    0.978    39 H    0.977    40 H    0.974
                            38 H    0.973
    12   6 C    3.963 --    13 C    1.402     9 C    1.393    41 H    0.964
    13   6 C    3.955 --     4 C    1.414    12 C    1.402    42 H    0.962
    14   6 C    3.972 --    15 C    0.981    44 H    0.972    43 H    0.969
                             3 C    0.957
    15   6 C    3.986 --    16 C    1.060    14 C    0.981    45 H    0.961
                            46 H    0.927
    16   6 C    3.597 --    17 N    1.407    15 C    1.060    48 H    0.957
    17   7 N    3.484 --    16 C    1.407    30 C    0.998    18 C    0.989
    18   6 C    3.954 --    17 N    0.989    50 H    0.967    19 C    0.965
                            49 H    0.963
    19   6 C    3.969 --    20 C    1.008    52 H    0.972    51 H    0.968
                            18 C    0.965
    20   6 C    3.912 --    21 C    1.390    29 C    1.337    19 C    1.008
    21   6 C    3.325 --    22 C    1.627    20 C    1.390    53 H    0.125
    22   6 C    3.716 --    21 C    1.627    23 C    1.342    54 H    0.521
    23   6 C    3.865 --    22 C    1.342    26 C    1.197    24 O    1.115
    24   8 O    2.266 --    23 C    1.115    25 C    0.970
    25   6 C    3.923 --    57 H    0.977    56 H    0.974    55 H    0.974
                            24 O    0.970
    26   6 C    3.884 --    29 C    1.406    23 C    1.197    27 O    1.094
    27   8 O    2.240 --    26 C    1.094    28 C    0.977
    28   6 C    3.929 --    27 O    0.977    58 H    0.976    59 H    0.974
                            60 H    0.973
    29   6 C    3.925 --    26 C    1.406    20 C    1.337    61 H    0.951
    30   6 C    3.957 --    17 N    0.998    64 H    0.977    62 H    0.966
                            63 H    0.961
    31   6 C    3.973 --    33 C    1.009    32 C    1.008    65 H    0.960
                             3 C    0.943
    32   6 C    3.979 --    31 C    1.008    67 H    0.982    68 H    0.981
                            66 H    0.974
    33   6 C    3.983 --    31 C    1.009    70 H    0.983    71 H    0.980
                            69 H    0.976
    34   1 H    0.996 --     5 C    0.958
    35   1 H    0.993 --     8 C    0.974
    36   1 H    0.993 --     8 C    0.977
    37   1 H    0.994 --     8 C    0.973
    38   1 H    0.993 --    11 C    0.973
    39   1 H    0.993 --    11 C    0.977
    40   1 H    0.994 --    11 C    0.974
    41   1 H    0.996 --    12 C    0.964
    42   1 H    0.998 --    13 C    0.962
    43   1 H    0.995 --    14 C    0.969
    44   1 H    0.996 --    14 C    0.972
    45   1 H    0.995 --    15 C    0.961
    46   1 H    0.970 --    15 C    0.927
    47   1 H    0.987 --     2 C    0.901
    48   1 H    0.994 --    16 C    0.957
    49   1 H    0.990 --    18 C    0.963
    50   1 H    0.994 --    18 C    0.967
    51   1 H    0.993 --    19 C    0.968
    52   1 H    0.996 --    19 C    0.972
    53   1 H    0.625 --    54 H    0.443    21 C    0.125
    54   1 H    0.979 --    22 C    0.521    53 H    0.443
    55   1 H    0.992 --    25 C    0.974
    56   1 H    0.992 --    25 C    0.974
    57   1 H    0.992 --    25 C    0.977
    58   1 H    0.992 --    28 C    0.976
    59   1 H    0.993 --    28 C    0.974
    60   1 H    0.993 --    28 C    0.973
    61   1 H    0.984 --    29 C    0.951
    62   1 H    0.985 --    30 C    0.966
    63   1 H    0.987 --    30 C    0.961
    64   1 H    0.993 --    30 C    0.977
    65   1 H    0.992 --    31 C    0.960
    66   1 H    0.991 --    32 C    0.974
    67   1 H    0.997 --    32 C    0.982
    68   1 H    0.994 --    32 C    0.981
    69   1 H    0.993 --    33 C    0.976
    70   1 H    0.997 --    33 C    0.983
    71   1 H    0.994 --    33 C    0.980
    72   1 H    0.970 --     1 N    0.942
 ---------------------------------------------------------------------------

molecular dipole:
                 x           y           z       tot (Debye)
 q only:        0.764      -0.196      -0.736
   full:        1.145      -0.346      -0.825       3.693

           -------------------------------------------------
          | TOTAL ENERGY              -99.239279869901 Eh   |
          | GRADIENT NORM               0.002315268929 Eh/α |
          | HOMO-LUMO GAP               1.204778929114 eV   |
           -------------------------------------------------

 * finished run on 2024/04/06 at 11:13:49.942
