   * xtb version 6.6.1 (8d0f1dd) compiled by 'conda@1efc2f54142f' on 2023-08-01
          program call               : xtb xtbopt.xyz --opt crude --input .xc2 --gfn2

   ID    Z sym.   atoms
    1    7 N      1, 17
    2    6 C      2-6, 8, 9, 11-16, 18-23, 25, 26, 28-33
    3    8 O      7, 10, 24, 27
    4    1 H      34-72

          :  Hamiltonian                  GFN2-xTB          :
 * total energy  :   -99.2397152 Eh     change       -0.7943868E-11 Eh
 * total energy  :   -99.2421046 Eh     change       -0.2389338E-02 Eh
 * total energy  :   -99.2430304 Eh     change       -0.9257824E-03 Eh
 * total energy  :   -99.2434941 Eh     change       -0.4637107E-03 Eh
   *** GEOMETRY OPTIMIZATION CONVERGED AFTER 4 ITERATIONS ***

 final structure:
================
72
 xtb: 6.6.1 (8d0f1dd)
N           -1.91519544196225        2.87015829935695        2.21789189093379
C           -1.86296404468329        2.15352250868393        1.19691335910807
C           -3.00668667594785        1.93662847256267        0.24477718113325
C           -3.47260564008829        0.49123407492509        0.32975585271215
C           -4.39553848043400        0.00536487071184       -0.59876780172307
C           -4.86863602377354       -1.29474100824531       -0.53743130199765
O           -5.76900632362661       -1.83667965405763       -1.38300759981469
C           -6.38739751478118       -1.01897125061331       -2.34860120506784
C           -4.39543527565482       -2.16448025526370        0.48233676822608
O           -4.90112327712527       -3.41374952653904        0.46031661169176
C           -4.54526963680691       -4.31487431514431        1.48265992811628
C           -3.48018977945268       -1.67591057599733        1.40081147478107
C           -3.02863216591272       -0.36385575841894        1.32641370478186
C           -2.44346692229243        2.23329387866543       -1.17021825299048
C           -1.52594685005264        1.13444684172433       -1.73666206855486
C           -0.19794834132623        1.07208441104256       -1.08760182496060
N            0.41709634469037       -0.03837663374966       -0.70551209336018
C            1.79384513999284       -0.00945212807741       -0.27504376501307
C            2.74061906067807       -0.61845696143419       -1.32643609904813
C            4.15976594645167       -0.36675625689058       -0.90634618511206
C            4.77028295735197        0.84962047897652       -1.05902643311195
C            6.01091209381258        1.16331733730146       -0.68962839359631
C            6.83835004971697        0.24039356607487       -0.07231605038986
O            8.10009566976312        0.39049092454253        0.35114279312564
C            8.75352751276334        1.62118926226079        0.13249296744303
C            6.25368297387699       -1.05116430160532        0.14078811879041
O            7.07756330193903       -1.92642977916973        0.75850270933891
C            6.62264544224569       -3.23003999708407        1.03544082544446
C            4.95483598679860       -1.32687543019132       -0.26571305432332
C           -0.22296353173371       -1.33101546116979       -0.75822540636472
C           -4.22946439833694        2.85836464432329        0.53171338421114
C           -4.87389264347704        2.53012489303196        1.87644612559941
C           -3.88993240195201        4.34491225424140        0.47272508395968
H           -4.76112097070190        0.66015081326796       -1.37218491100785
H           -6.90244463210404       -0.17192426036943       -1.88564088077393
H           -7.11675452870474       -1.65547733630660       -2.84565366713864
H           -5.66744115652615       -0.65200211534689       -3.08740335698475
H           -4.82954833087694       -3.93504532469383        2.46840753582425
H           -5.10023730127343       -5.22728243272467        1.27380036374694
H           -3.47255683093306       -4.53317537109221        1.47027023240125
H           -3.11879836654298       -2.30624455369870        2.19701521587933
H           -2.34195646758893       -0.01095591413142        2.08022295100858
H           -3.27775457162390        2.36168685326951       -1.85894005913326
H           -1.89459528718708        3.17526300649764       -1.13906312105516
H           -2.03775456234156        0.17463634904109       -1.69710832762197
H           -1.35789806081836        1.38123970346178       -2.79311519093839
H           -0.94715766867141        1.63137772698136        0.85687346119603
H            0.38070251376423        1.98363187484455       -1.04818484782426
H            1.89110994797188       -0.55843145634644        0.66652521925314
H            2.09662016015640        1.02517929321470       -0.10173156147870
H            2.56118353852303       -0.12567027945348       -2.28465980669774
H            2.55330362045368       -1.68609512365543       -1.43957538076140
H            6.61707020852589        3.40040365487133       -1.13513020645611
H            6.37032073424137        2.33501422493639       -0.92707843030120
H            8.25595842238595        2.43604241397311        0.66574394976783
H            8.80421697232195        1.85983454235593       -0.93348961000264
H            9.76042785758953        1.49318465677962        0.52471399918282
H            7.45238767287222       -3.72810773551578        1.53361903219747
H            5.75531358041743       -3.21906559364611        1.70354828521755
H            6.37395588194851       -3.77317323497238        0.11836645125270
H            4.54041580875667       -2.30999100358084       -0.10433172273636
H           -0.38791564633826       -1.64743856632753       -1.79027362686976
H           -1.18411574704966       -1.30388091273440       -0.23936834915409
H            0.41335746454017       -2.06365128336684       -0.26862033246214
H           -4.96519320461984        2.64872495651296       -0.25317511519712
H           -4.18074905045029        2.74425600170380        2.68353067314287
H           -5.16520067416870        1.48386820480319        1.92883742083295
H           -5.76316629414770        3.13996393514656        2.01218334019585
H           -3.15039234388224        4.59316524328546        1.22769789999102
H           -3.51780898034428        4.63903217748770       -0.50505166394076
H           -4.78804506930427        4.92286920647261        0.67442764477451
H           -1.07215015191232        2.96890975679279        2.77467009130152

          :  Hamiltonian                  GFN2-xTB          :
         :: total energy             -99.243494080984 Eh    ::
         :: gradient norm              0.003661981965 Eh/a0 ::
         :: HOMO-LUMO gap              1.169613195570 eV    ::
         :: SCC energy              -100.611876617230 Eh    ::
         :: -> dispersion             -0.075356525528 Eh    ::
         :: repulsion energy           1.367139106409 Eh    ::

    * Orbital Energies and Occupations

         #    Occupation            Energy/Eh            Energy/eV
      -------------------------------------------------------------
         1        2.0000           -0.8114969             -22.0820
       ...           ...                  ...                  ...
        78        1.9987           -0.5337501             -14.5241
        79        1.9982           -0.5290525             -14.3963
        80        1.9981           -0.5281914             -14.3728
        81        1.9974           -0.5231841             -14.2366
        82        1.9958           -0.5152022             -14.0194
        83        1.9950           -0.5125337             -13.9468
        84        1.9941           -0.5099059             -13.8752
        85        1.9816           -0.4917434             -13.3810
        86        1.9810           -0.4912301             -13.3671
        87        1.9359           -0.4716526             -12.8343
        88        1.8724           -0.4602185             -12.5232
        89        1.8450           -0.4569053             -12.4330
        90        1.5955           -0.4394180             -11.9572 (HOMO)
        91        0.4143           -0.3964355             -10.7876 (LUMO)
        92        0.3799           -0.3947248             -10.7410
        93        0.0141           -0.3392935              -9.2326
        94        0.0037           -0.3179622              -8.6522
        95        0.0036           -0.3174267              -8.6376
        96        0.0029           -0.3143543              -8.5540
        97        0.0013           -0.3020657              -8.2196
        98        0.0000           -0.1917537              -5.2179
        99        0.0000           -0.1830464              -4.9809
       100                         -0.1350510              -3.6749
       101                         -0.0695436              -1.8924
       ...                                ...                  ...
       171                          0.5980357              16.2734
      -------------------------------------------------------------
                  HL-Gap            0.0429825 Eh            1.1696 eV

     #   Z          covCN         q      C6AA      α(0)
     1   7 N        1.774    -0.267    27.760     7.802
     2   6 C        2.827     0.102    25.743     8.314
     3   6 C        3.907     0.006    20.414     6.422
     4   6 C        2.974     0.002    27.972     8.675
     5   6 C        2.920    -0.080    30.004     8.983
     6   6 C        2.862     0.129    25.164     8.222
     7   8 O        1.706    -0.230    17.813     5.698
     8   6 C        3.644     0.027    20.450     6.500
     9   6 C        2.864     0.128    25.187     8.226
    10   8 O        1.706    -0.229    17.790     5.695
    11   6 C        3.645     0.027    20.456     6.500
    12   6 C        2.914    -0.075    29.871     8.962
    13   6 C        2.921    -0.053    29.328     8.881
    14   6 C        3.812    -0.065    21.731     6.635
    15   6 C        3.802    -0.070    21.831     6.652
    16   6 C        2.843     0.009    27.819     8.644
    17   7 N        2.729     0.015    21.001     6.806
    18   6 C        3.758    -0.017    20.931     6.523
    19   6 C        3.806    -0.067    21.787     6.645
    20   6 C        2.967     0.014    27.691     8.632
    21   6 C        2.030    -0.088    33.404     9.335
    22   6 C        2.842    -0.051    29.269     8.866
    23   6 C        2.872     0.143    24.879     8.176
    24   8 O        1.705    -0.216    17.584     5.662
    25   6 C        3.647     0.024    20.499     6.506
    26   6 C        2.867     0.126    25.238     8.235
    27   8 O        1.706    -0.226    17.757     5.689
    28   6 C        3.643     0.027    20.463     6.503
    29   6 C        2.938    -0.080    30.005     8.984
    30   6 C        3.700    -0.072    22.037     6.713
    31   6 C        3.853    -0.007    20.672     6.467
    32   6 C        3.756    -0.119    22.825     6.812
    33   6 C        3.755    -0.119    22.833     6.813
    34   1 H        0.926     0.052     2.292     2.367
    35   1 H        0.924     0.054     2.271     2.357
    36   1 H        0.925     0.081     1.965     2.192
    37   1 H        0.924     0.048     2.351     2.398
    38   1 H        0.924     0.055     2.255     2.348
    39   1 H        0.925     0.081     1.966     2.193
    40   1 H        0.924     0.048     2.349     2.397
    41   1 H        0.926     0.052     2.296     2.369
    42   1 H        0.926     0.039     2.467     2.456
    43   1 H        0.925     0.061     2.189     2.314
    44   1 H        0.924     0.054     2.269     2.356
    45   1 H        0.925     0.067     2.123     2.279
    46   1 H        0.924     0.081     1.966     2.193
    47   1 H        0.922     0.006     2.963     2.692
    48   1 H        0.926     0.072     2.060     2.245
    49   1 H        0.924     0.066     2.127     2.281
    50   1 H        0.924     0.073     2.050     2.239
    51   1 H        0.924     0.064     2.157     2.297
    52   1 H        0.925     0.055     2.264     2.353
    53   1 H        0.001    -0.055    10.526     5.932
    54   1 H        0.845     0.115     1.673     2.027
    55   1 H        0.924     0.057     2.230     2.335
    56   1 H        0.924     0.059     2.217     2.328
    57   1 H        0.925     0.084     1.934     2.175
    58   1 H        0.925     0.083     1.946     2.182
    59   1 H        0.924     0.049     2.329     2.387
    60   1 H        0.924     0.053     2.283     2.363
    61   1 H        0.926     0.059     2.207     2.323
    62   1 H        0.924     0.077     2.008     2.216
    63   1 H        0.924     0.080     1.978     2.200
    64   1 H        0.925     0.080     1.975     2.197
    65   1 H        0.924     0.037     2.486     2.466
    66   1 H        0.925     0.069     2.100     2.266
    67   1 H        0.925     0.035     2.512     2.479
    68   1 H        0.925     0.051     2.303     2.373
    69   1 H        0.925     0.062     2.181     2.309
    70   1 H        0.925     0.035     2.519     2.482
    71   1 H        0.925     0.055     2.264     2.353
    72   1 H        0.860     0.157     1.352     1.821

Wiberg/Mayer (AO) data.
largest (>0.10) Wiberg bond orders for each atom

     #   Z sym  total        # sym  WBO       # sym  WBO       # sym  WBO
 ---------------------------------------------------------------------------
     1   7 N    3.040 --     2 C    1.958    72 H    0.941
     2   6 C    3.930 --     1 N    1.958     3 C    0.994    47 H    0.901
     3   6 C    3.976 --     2 C    0.994     4 C    0.970    14 C    0.957
                            31 C    0.942
     4   6 C    3.949 --    13 C    1.414     5 C    1.368     3 C    0.970
     5   6 C    3.962 --     6 C    1.401     4 C    1.368    34 H    0.958
     6   6 C    3.906 --     5 C    1.401     9 C    1.222     7 O    1.100
     7   8 O    2.254 --     6 C    1.100     8 C    0.978
     8   6 C    3.932 --     7 O    0.978    36 H    0.977    35 H    0.974
                            37 H    0.973
     9   6 C    3.902 --    12 C    1.392     6 C    1.222    10 O    1.102
    10   8 O    2.253 --     9 C    1.102    11 C    0.977
    11   6 C    3.931 --    10 O    0.977    39 H    0.977    40 H    0.974
                            38 H    0.973
    12   6 C    3.962 --    13 C    1.402     9 C    1.392    41 H    0.964
    13   6 C    3.954 --     4 C    1.414    12 C    1.402    42 H    0.962
    14   6 C    3.972 --    15 C    0.981    44 H    0.972    43 H    0.968
                             3 C    0.957
    15   6 C    3.986 --    16 C    1.060    14 C    0.981    45 H    0.961
                            46 H    0.927
    16   6 C    3.602 --    17 N    1.410    15 C    1.060    48 H    0.956
    17   7 N    3.487 --    16 C    1.410    30 C    0.997    18 C    0.988
    18   6 C    3.954 --    17 N    0.988    19 C    0.967    50 H    0.967
                            49 H    0.963
    19   6 C    3.968 --    20 C    1.004    52 H    0.973    51 H    0.968
                            18 C    0.967
    20   6 C    3.906 --    21 C    1.388    29 C    1.340    19 C    1.004
    21   6 C    3.317 --    22 C    1.618    20 C    1.388    53 H    0.131
    22   6 C    3.732 --    21 C    1.618    23 C    1.336    54 H    0.561
    23   6 C    3.860 --    22 C    1.336    26 C    1.200    24 O    1.116
    24   8 O    2.264 --    23 C    1.116    25 C    0.970
    25   6 C    3.922 --    57 H    0.976    56 H    0.973    55 H    0.973
                            24 O    0.970
    26   6 C    3.882 --    29 C    1.404    23 C    1.200    27 O    1.096
    27   8 O    2.240 --    26 C    1.096    28 C    0.977
    28   6 C    3.929 --    27 O    0.977    58 H    0.976    59 H    0.974
                            60 H    0.973
    29   6 C    3.924 --    26 C    1.404    20 C    1.340    61 H    0.951
    30   6 C    3.957 --    17 N    0.997    64 H    0.977    62 H    0.966
                            63 H    0.960
    31   6 C    3.972 --    33 C    1.009    32 C    1.008    65 H    0.960
                             3 C    0.942
    32   6 C    3.979 --    31 C    1.008    67 H    0.982    68 H    0.981
                            66 H    0.974
    33   6 C    3.982 --    31 C    1.009    70 H    0.983    71 H    0.980
                            69 H    0.976
    34   1 H    0.996 --     5 C    0.958
    35   1 H    0.993 --     8 C    0.974
    36   1 H    0.993 --     8 C    0.977
    37   1 H    0.994 --     8 C    0.973
    38   1 H    0.993 --    11 C    0.973
    39   1 H    0.993 --    11 C    0.977
    40   1 H    0.993 --    11 C    0.974
    41   1 H    0.996 --    12 C    0.964
    42   1 H    0.998 --    13 C    0.962
    43   1 H    0.995 --    14 C    0.968
    44   1 H    0.996 --    14 C    0.972
    45   1 H    0.995 --    15 C    0.961
    46   1 H    0.970 --    15 C    0.927
    47   1 H    0.986 --     2 C    0.901
    48   1 H    0.994 --    16 C    0.956
    49   1 H    0.990 --    18 C    0.963
    50   1 H    0.994 --    18 C    0.967
    51   1 H    0.993 --    19 C    0.968
    52   1 H    0.996 --    19 C    0.973
    53   1 H    0.584 --    54 H    0.401    21 C    0.131
    54   1 H    0.979 --    22 C    0.561    53 H    0.401
    55   1 H    0.991 --    25 C    0.973
    56   1 H    0.992 --    25 C    0.973
    57   1 H    0.991 --    25 C    0.976
    58   1 H    0.992 --    28 C    0.976
    59   1 H    0.993 --    28 C    0.974
    60   1 H    0.993 --    28 C    0.973
    61   1 H    0.983 --    29 C    0.951
    62   1 H    0.985 --    30 C    0.966
    63   1 H    0.987 --    30 C    0.960
    64   1 H    0.993 --    30 C    0.977
    65   1 H    0.992 --    31 C    0.960
    66   1 H    0.991 --    32 C    0.974
    67   1 H    0.997 --    32 C    0.982
    68   1 H    0.994 --    32 C    0.981
    69   1 H    0.993 --    33 C    0.976
    70   1 H    0.997 --    33 C    0.983
    71   1 H    0.994 --    33 C    0.980
    72   1 H    0.970 --     1 N    0.941
 ---------------------------------------------------------------------------

molecular dipole:
                 x           y           z       tot (Debye)
 q only:        0.548      -0.334      -0.702
   full:        0.936      -0.482      -0.793       3.349

           -------------------------------------------------
          | TOTAL ENERGY              -99.243494080984 Eh   |
          | GRADIENT NORM               0.003661981965 Eh/α |
          | HOMO-LUMO GAP               1.169613195570 eV   |
           -------------------------------------------------

 * finished run on 2024/04/06 at 11:13:50.929
