   * xtb version 6.6.1 (8d0f1dd) compiled by 'conda@1efc2f54142f' on 2023-08-01
          program call               : xtb struc.xyz --opt loose --input .xc1 --gfn2

   ID    Z sym.   atoms
    1    6 C      1, 3, 5-7, 10, 11, 14
    2    7 N      2, 4, 9, 13
    3    8 O      8, 12
    4    1 H      15-25
constraining bond 6 15 to    3.7133300 Å, actual value:    3.1327550 Å

          :  Hamiltonian                  GFN2-xTB          :
 * total energy  :   -42.8471280 Eh     change       -0.6633627E-10 Eh
 * total energy  :   -45.1644671 Eh     change       -0.2317339E+01 Eh
 * total energy  :   -49.1546829 Eh     change       -0.3990216E+01 Eh
 * total energy  :   -55.0243146 Eh     change       -0.5869632E+01 Eh
 * total energy  :   -56.6799192 Eh     change       -0.1655605E+01 Eh
 * total energy  :   -58.1227537 Eh     change       -0.1442834E+01 Eh
 * total energy  :   -58.7616409 Eh     change       -0.6388872E+00 Eh
 * total energy  :   -58.6544466 Eh     change        0.1071942E+00 Eh
 * total energy  :   -59.2535757 Eh     change       -0.5991291E+00 Eh
 * total energy  :   -59.3500138 Eh     change       -0.9643808E-01 Eh
 * total energy  :   -59.7421868 Eh     change       -0.2933258E-03 Eh
 * total energy  :   -59.7423720 Eh     change       -0.1852360E-03 Eh
 * total energy  :   -59.7424755 Eh     change       -0.1034504E-03 Eh
 * total energy  :   -59.7425471 Eh     change       -0.7162684E-04 Eh
 * total energy  :   -59.7426102 Eh     change       -0.6310259E-04 Eh
 * total energy  :   -59.7426654 Eh     change       -0.5519211E-04 Eh
 * total energy  :   -59.7427178 Eh     change       -0.5240663E-04 Eh
 * total energy  :   -59.7427599 Eh     change       -0.4207495E-04 Eh
 * total energy  :   -59.7427797 Eh     change       -0.1983888E-04 Eh
   *** GEOMETRY OPTIMIZATION CONVERGED AFTER 42 ITERATIONS ***

 final structure:
================
25
 xtb: 6.6.1 (8d0f1dd)
C            3.27608044477462        1.13999672945252        0.13695046013131
N            2.42428286152679        0.15683586729783        0.05420449257000
C            2.55864704383057       -1.05577728867861       -0.53277240739338
N            1.38481483641532       -1.74463377075916       -0.44595264603828
C            0.47047051343224       -1.06573520017680        0.23388872089818
C            1.07527632109970        0.23951044675952        0.70442022548281
C            0.17812572245802        1.33218511012829       -0.09547150716107
O            0.69180555488354        2.25437140335264       -0.64958416529230
N           -1.14017395858490        1.06945615210116        0.05246919790578
C           -2.09373272664261        2.12165507469830       -0.30454491975813
C           -1.72325026328408       -0.16790269520207        0.39011382277895
O           -2.89175203046738       -0.28119346039478        0.61003060853488
N           -0.86216682754333       -1.27112998619988        0.34161258145231
C           -1.43740230388533       -2.60516958163408        0.29186631264014
H            1.07723242212085        0.34258154004848        1.11612748176488
H            4.24977399411669        1.03505246522780       -0.29890511628246
H            2.99654891298703        2.05311376152279        0.62354460983844
H            3.43591382060205       -1.40719697204718       -1.03177318383211
H           -1.56219973989898        3.06784500467428       -0.35245246496974
H           -2.55003899241179        1.90680811244816       -1.26940374595920
H           -2.87046226885938        2.15761344492866        0.45750686473010
H           -0.92499338568937       -3.25680396237931        0.99898175208498
H           -1.37284310560766       -3.02001523027926       -0.71678931567398
H           -2.48724146474686       -2.52300145559995        0.57249483044743
H            1.25771613347494       -2.66022696769179       -0.85539087099889

          :  Hamiltonian                  GFN2-xTB          :
         :: total energy             -59.742779728461 Eh    ::
         :: gradient norm              0.003855120224 Eh/a0 ::
         :: HOMO-LUMO gap              1.592052135900 eV    ::
         :: SCC energy               -42.693949975309 Eh    ::
         :: -> dispersion             -0.023137438812 Eh    ::
         :: repulsion energy           2.265013436366 Eh    ::

    * Orbital Energies and Occupations

         #    Occupation            Energy/Eh            Energy/eV
      -------------------------------------------------------------
         1        2.0000           -0.9157409             -24.9186
       ...           ...                  ...                  ...
        25        2.0000           -0.6803624             -18.5136
        26        2.0000           -0.6732635             -18.3204
        27        2.0000           -0.6676817             -18.1685
        28        2.0000           -0.6643087             -18.0768
        29        2.0000           -0.6421655             -17.4742
        30        2.0000           -0.6318725             -17.1941
        31        2.0000           -0.6279517             -17.0874
        32        2.0000           -0.6116331             -16.6434
        33        2.0000           -0.6082468             -16.5512
        34        2.0000           -0.5897976             -16.0492
        35        2.0000           -0.5829846             -15.8638
        36        2.0000           -0.5739103             -15.6169
        37        1.9514           -0.5110666             -13.9068 (HOMO)
        38        0.0484           -0.4525598             -12.3148 (LUMO)
        39        0.0002           -0.4101178             -11.1599
        40        0.0000           -0.3837056             -10.4412
        41                         -0.3480799              -9.4717
        42                         -0.2401801              -6.5356
        43                         -0.2013784              -5.4798
        44                         -0.1961105              -5.3364
        45                         -0.1607691              -4.3748
        46                         -0.1330333              -3.6200
        47                         -0.0958329              -2.6077
        48                         -0.0604907              -1.6460
       ...                                ...                  ...
        67                         10.4383460             284.0419
      -------------------------------------------------------------
                  HL-Gap            0.0585068 Eh            1.5921 eV

     #   Z          covCN         q      C6AA      α(0)
     1   6 C        2.788    -0.070    29.719     8.930
     2   7 N        2.780     0.093    19.632     6.581
     3   6 C        2.918    -0.017    28.438     8.745
     4   7 N        2.733    -0.037    21.955     6.959
     5   6 C        2.978     0.087    26.054     8.373
     6   6 C        3.843    -0.066    21.724     6.630
     7   6 C        2.756     0.273    22.383     7.747
     8   8 O        0.857    -0.313    20.018     5.999
     9   7 N        2.734    -0.089    22.977     7.119
    10   6 C        3.707    -0.062    21.845     6.681
    11   6 C        2.723     0.319    21.579     7.605
    12   8 O        0.859    -0.333    20.387     6.054
    13   7 N        2.734    -0.069    22.575     7.057
    14   6 C        3.696    -0.072    22.050     6.717
    15   1 H        0.940     0.191     1.144     1.672
    16   1 H        0.926     0.107     1.719     2.050
    17   1 H        0.926     0.115     1.651     2.009
    18   1 H        0.927     0.112     1.679     2.026
    19   1 H        0.925     0.104     1.751     2.070
    20   1 H        0.925     0.093     1.850     2.127
    21   1 H        0.925     0.110     1.694     2.036
    22   1 H        0.925     0.087     1.912     2.162
    23   1 H        0.924     0.080     1.977     2.199
    24   1 H        0.925     0.125     1.573     1.961
    25   1 H        0.860     0.230     0.966     1.539

Wiberg/Mayer (AO) data.
largest (>0.10) Wiberg bond orders for each atom

     #   Z sym  total        # sym  WBO       # sym  WBO       # sym  WBO
 ---------------------------------------------------------------------------
     1   6 C    3.864 --     2 N    1.478    17 H    0.964    16 H    0.962
                             3 C    0.207     5 C    0.106
     2   7 N    3.738 --     1 C    1.478     3 C    1.224     6 C    0.959
     3   6 C    3.812 --     2 N    1.224     4 N    1.193    18 H    0.955
                             1 C    0.207     5 C    0.158
     4   7 N    3.634 --     5 C    1.340     3 C    1.193    25 H    0.915
     5   6 C    3.914 --     4 N    1.340    13 N    1.189     6 C    1.009
                             3 C    0.158     1 C    0.106
     6   6 C    3.929 --     5 C    1.009     2 N    0.959    15 H    0.921
                             7 C    0.801
     7   6 C    3.951 --     8 O    1.791     9 N    1.216     6 C    0.801
     8   8 O    2.176 --     7 C    1.791     9 N    0.164
     9   7 N    3.559 --     7 C    1.216    11 C    1.044    10 C    0.950
                             8 O    0.164    12 O    0.108
    10   6 C    3.915 --    19 H    0.975    20 H    0.971    21 H    0.967
                             9 N    0.950
    11   6 C    3.952 --    12 O    1.740    13 N    1.061     9 N    1.044
    12   8 O    2.076 --    11 C    1.740    13 N    0.123     9 N    0.108
    13   7 N    3.536 --     5 C    1.189    11 C    1.061    14 C    0.965
                            12 O    0.123
    14   6 C    3.923 --    22 H    0.975    23 H    0.971    24 H    0.965
                            13 N    0.965
    15   1 H    0.963 --     6 C    0.921
    16   1 H    0.988 --     1 C    0.962
    17   1 H    0.987 --     1 C    0.964
    18   1 H    0.987 --     3 C    0.955
    19   1 H    0.989 --    10 C    0.975
    20   1 H    0.991 --    10 C    0.971
    21   1 H    0.987 --    10 C    0.967
    22   1 H    0.991 --    14 C    0.975
    23   1 H    0.992 --    14 C    0.971
    24   1 H    0.984 --    14 C    0.965
    25   1 H    0.947 --     4 N    0.915
 ---------------------------------------------------------------------------

molecular dipole:
                 x           y           z       tot (Debye)
 q only:        1.848      -1.527       0.002
   full:        2.100      -1.840      -0.074       7.098

           -------------------------------------------------
          | TOTAL ENERGY              -59.742779728461 Eh   |
          | GRADIENT NORM               0.003855120224 Eh/α |
          | HOMO-LUMO GAP               1.592052135900 eV   |
           -------------------------------------------------

 * finished run on 2024/06/05 at 19:58:12.221
