   * xtb version 6.6.1 (8d0f1dd) compiled by 'conda@1efc2f54142f' on 2023-08-01
          program call               : xtb xtbopt.xyz --opt crude --input .xc2 --gfn2

   ID    Z sym.   atoms
    1    6 C      1, 3, 5-7, 10, 11, 14
    2    7 N      2, 4, 9, 13
    3    8 O      8, 12
    4    1 H      15-25
########################################################################
[WARNING] Please study the warnings concerning your input carefully
-1- readin_getIntValue: could not parse ''
########################################################################

          :  Hamiltonian                  GFN2-xTB          :
 * total energy  :   -40.4287789 Eh     change       -0.1369216E-10 Eh
 * total energy  :   -42.1422178 Eh     change       -0.1713439E+01 Eh
 * total energy  :   -42.1595164 Eh     change       -0.1729864E-01 Eh
 * total energy  :   -42.1634368 Eh     change       -0.3920431E-02 Eh
 * total energy  :   -42.1641908 Eh     change       -0.7539750E-03 Eh
 * total energy  :   -42.1647606 Eh     change       -0.5697430E-03 Eh
 * total energy  :   -42.1654500 Eh     change       -0.6894065E-03 Eh
 * total energy  :   -42.1659813 Eh     change       -0.5313406E-03 Eh
 * total energy  :   -42.1662196 Eh     change       -0.2382659E-03 Eh
   *** GEOMETRY OPTIMIZATION CONVERGED AFTER 9 ITERATIONS ***

 final structure:
================
25
 xtb: 6.6.1 (8d0f1dd)
C            3.27187935979784        1.13698274729093        0.02710677689564
N            2.42096245844743        0.14885716408066        0.00317744749202
C            2.57661116266436       -1.10175773598533       -0.49253016400623
N            1.40609901946893       -1.79805557679782       -0.38046584573869
C            0.47319872062581       -1.07505880033986        0.22248107620373
C            1.06972922701659        0.24525138322110        0.54319559782713
C            0.18030137260749        1.35109673455377       -0.10345006710285
O            0.64504570319385        2.33630831240211       -0.59582241247458
N           -1.14742147519192        1.06637016719496        0.02052319889399
C           -2.10484291802571        2.13455511554973       -0.26807760991677
C           -1.72539519690257       -0.16994807389977        0.32903678730789
O           -2.89871695394282       -0.30289192369998        0.51582921353644
N           -0.85647353904878       -1.27609648059265        0.31437135465942
C           -1.43342294370426       -2.60782406208740        0.23564290958053
H            1.08022150502643        0.49541149195275        1.61060766487090
H            4.24669149078289        1.00294180984027       -0.40283519145807
H            2.98659757934808        2.08187646394380        0.44504664133310
H            3.47461008260485       -1.48885917326299       -0.92050064137779
H           -1.56936759783730        3.07926954239899       -0.29596518902446
H           -2.59028460270389        1.95879375612709       -1.22691645996580
H           -2.86213454346686        2.14641505492084        0.51370803236942
H           -0.91253650834465       -3.27953517415373        0.91561283023135
H           -1.38600000412507       -2.99298151730786       -0.78446574377514
H           -2.47828081524083       -2.53117685729313        0.53275556095642
H            1.29336093105075       -2.74170582645885       -0.72689414941689

          :  Hamiltonian                  GFN2-xTB          :
         :: total energy             -42.166219577175 Eh    ::
         :: gradient norm              0.006667436467 Eh/a0 ::
         :: HOMO-LUMO gap              1.567089509266 eV    ::
         :: SCC energy               -42.687537741707 Eh    ::
         :: -> dispersion             -0.023046854030 Eh    ::
         :: repulsion energy           0.521154858990 Eh    ::

    * Orbital Energies and Occupations

         #    Occupation            Energy/Eh            Energy/eV
      -------------------------------------------------------------
         1        2.0000           -0.9075457             -24.6956
       ...           ...                  ...                  ...
        25        2.0000           -0.6783439             -18.4587
        26        2.0000           -0.6730931             -18.3158
        27        2.0000           -0.6654949             -18.1090
        28        2.0000           -0.6615827             -18.0026
        29        2.0000           -0.6382976             -17.3690
        30        2.0000           -0.6319586             -17.1965
        31        2.0000           -0.6277045             -17.0807
        32        2.0000           -0.6082932             -16.5525
        33        2.0000           -0.6045017             -16.4493
        34        2.0000           -0.5889996             -16.0275
        35        2.0000           -0.5794687             -15.7681
        36        2.0000           -0.5710834             -15.5400
        37        1.9486           -0.5087142             -13.8428 (HOMO)
        38        0.0512           -0.4511248             -12.2757 (LUMO)
        39        0.0002           -0.4083094             -11.1107
        40        0.0000           -0.3823103             -10.4032
        41                         -0.3433229              -9.3423
        42                         -0.2135374              -5.8106
        43                         -0.1896414              -5.1604
        44                         -0.1573447              -4.2816
        45                         -0.1496092              -4.0711
        46                         -0.1087672              -2.9597
        47                         -0.0769048              -2.0927
        48                         -0.0594731              -1.6183
       ...                                ...                  ...
        67                          0.5384653              14.6524
      -------------------------------------------------------------
                  HL-Gap            0.0575895 Eh            1.5671 eV

     #   Z          covCN         q      C6AA      α(0)
     1   6 C        2.790    -0.074    29.822     8.945
     2   7 N        2.779     0.112    19.325     6.529
     3   6 C        2.954    -0.021    28.536     8.762
     4   7 N        2.748    -0.035    21.927     6.955
     5   6 C        2.974     0.093    25.928     8.352
     6   6 C        3.908    -0.010    20.698     6.467
     7   6 C        2.762     0.276    22.330     7.739
     8   8 O        0.857    -0.322    20.174     6.022
     9   7 N        2.737    -0.090    22.993     7.122
    10   6 C        3.708    -0.063    21.852     6.682
    11   6 C        2.723     0.318    21.595     7.607
    12   8 O        0.859    -0.337    20.455     6.064
    13   7 N        2.735    -0.065    22.497     7.044
    14   6 C        3.697    -0.072    22.056     6.718
    15   1 H        0.924     0.125     1.575     1.962
    16   1 H        0.926     0.108     1.714     2.047
    17   1 H        0.926     0.117     1.639     2.002
    18   1 H        0.927     0.111     1.686     2.030
    19   1 H        0.925     0.105     1.737     2.061
    20   1 H        0.925     0.094     1.842     2.123
    21   1 H        0.925     0.107     1.723     2.053
    22   1 H        0.925     0.086     1.922     2.168
    23   1 H        0.924     0.082     1.960     2.189
    24   1 H        0.925     0.126     1.563     1.955
    25   1 H        0.860     0.228     0.972     1.544

Wiberg/Mayer (AO) data.
largest (>0.10) Wiberg bond orders for each atom

     #   Z sym  total        # sym  WBO       # sym  WBO       # sym  WBO
 ---------------------------------------------------------------------------
     1   6 C    3.860 --     2 N    1.471    17 H    0.964    16 H    0.963
                             3 C    0.218     5 C    0.105
     2   7 N    3.744 --     1 C    1.471     3 C    1.223     6 C    0.978
     3   6 C    3.805 --     2 N    1.223     4 N    1.181    18 H    0.957
                             1 C    0.218     5 C    0.152
     4   7 N    3.632 --     5 C    1.343     3 C    1.181    25 H    0.917
     5   6 C    3.915 --     4 N    1.343    13 N    1.205     6 C    1.013
                             3 C    0.152     1 C    0.105
     6   6 C    3.969 --     5 C    1.013     2 N    0.978    15 H    0.912
                             7 C    0.871
     7   6 C    3.956 --     8 O    1.778     9 N    1.189     6 C    0.871
     8   8 O    2.143 --     7 C    1.778     9 N    0.163
     9   7 N    3.561 --     7 C    1.189    11 C    1.068    10 C    0.954
                             8 O    0.163    12 O    0.113
    10   6 C    3.916 --    19 H    0.974    20 H    0.971    21 H    0.968
                             9 N    0.954
    11   6 C    3.952 --    12 O    1.735     9 N    1.068    13 N    1.046
    12   8 O    2.073 --    11 C    1.735    13 N    0.118     9 N    0.113
    13   7 N    3.545 --     5 C    1.205    11 C    1.046    14 C    0.967
                            12 O    0.118
    14   6 C    3.924 --    22 H    0.975    23 H    0.970    13 N    0.967
                            24 H    0.965
    15   1 H    0.980 --     6 C    0.912
    16   1 H    0.987 --     1 C    0.963
    17   1 H    0.986 --     1 C    0.964
    18   1 H    0.987 --     3 C    0.957
    19   1 H    0.988 --    10 C    0.974
    20   1 H    0.991 --    10 C    0.971
    21   1 H    0.988 --    10 C    0.968
    22   1 H    0.991 --    14 C    0.975
    23   1 H    0.991 --    14 C    0.970
    24   1 H    0.983 --    14 C    0.965
    25   1 H    0.948 --     4 N    0.917
 ---------------------------------------------------------------------------

molecular dipole:
                 x           y           z       tot (Debye)
 q only:        1.940      -1.622       0.076
   full:        2.189      -1.948       0.093       7.451

           -------------------------------------------------
          | TOTAL ENERGY              -42.166219577175 Eh   |
          | GRADIENT NORM               0.006667436467 Eh/α |
          | HOMO-LUMO GAP               1.567089509266 eV   |
           -------------------------------------------------

 * finished run on 2024/06/05 at 19:58:12.611
