   * xtb version 6.6.1 (8d0f1dd) compiled by 'conda@1efc2f54142f' on 2023-08-01
          program call               : xtb struc.xyz --opt loose --input .xc1 --gfn2

   ID    Z sym.   atoms
    1    7 N      1, 17
    2    6 C      2-6, 8, 9, 11-16, 18-23, 25, 26, 28-33
    3    8 O      7, 10, 24, 27
    4    1 H      34-72
constraining bond 16 51 to    4.7133300 Å, actual value:    3.2075267 Å

          :  Hamiltonian                  GFN2-xTB          :
 * total energy  :   -99.8089902 Eh     change       -0.4035485E-08 Eh
 * total energy  :  -100.2262414 Eh     change       -0.4172511E+00 Eh
 * total energy  :  -100.7524129 Eh     change       -0.5261715E+00 Eh
 * total energy  :  -101.4370742 Eh     change       -0.6846613E+00 Eh
 * total energy  :  -101.2761810 Eh     change        0.1608932E+00 Eh
 * total energy  :  -101.7512962 Eh     change       -0.4751152E+00 Eh
 * total energy  :  -101.8307323 Eh     change       -0.7943614E-01 Eh
 * total energy  :  -101.9211938 Eh     change       -0.9046146E-01 Eh
 * total energy  :  -101.9544801 Eh     change       -0.3328631E-01 Eh
 * total energy  :  -101.9746981 Eh     change       -0.2021795E-01 Eh
 * total energy  :  -102.0371048 Eh     change       -0.2472835E-03 Eh
 * total energy  :  -102.0373183 Eh     change       -0.2135104E-03 Eh
 * total energy  :  -102.0375040 Eh     change       -0.1856272E-03 Eh
 * total energy  :  -102.0376679 Eh     change       -0.1638935E-03 Eh
 * total energy  :  -102.0378145 Eh     change       -0.1466721E-03 Eh
 * total energy  :  -102.0379559 Eh     change       -0.1413942E-03 Eh
 * total energy  :  -102.0380060 Eh     change       -0.5008200E-04 Eh
 * total energy  :  -102.0380410 Eh     change       -0.3499361E-04 Eh
 * total energy  :  -102.0380790 Eh     change       -0.3803938E-04 Eh
   *** GEOMETRY OPTIMIZATION CONVERGED AFTER 70 ITERATIONS ***

 final structure:
================
72
 xtb: 6.6.1 (8d0f1dd)
N           -1.75525763779849        2.72566847108383        2.11361384655132
C           -1.71794279125004        1.83286388630300        1.23888030620149
C           -2.71653342416247        1.70703183382552        0.12092727147432
C           -3.45390901951571        0.38534629950854        0.23905005686456
C           -4.27751842113478       -0.04670831324022       -0.80104534735065
C           -4.99338401903847       -1.23059479052513       -0.71422626238651
O           -5.81946255978788       -1.71354349054406       -1.66092944803473
C           -6.06810275026342       -0.95127450780593       -2.81895549147134
C           -4.87725096660044       -2.03566954892423        0.45410176836232
O           -5.59289569286894       -3.17412456232138        0.44538100304957
C           -5.55414451831578       -4.02116129234059        1.56968530002001
C           -4.06351536917715       -1.59433521525652        1.48743699120961
C           -3.36922383633756       -0.39795269371341        1.38278302095522
C           -1.88949502359051        1.76042788385174       -1.19541031861009
C           -1.16285356896622        0.47947230210295       -1.63018650820681
C            0.29860249317772        0.27287463101610       -1.14809504626850
N            0.36894955537991       -0.15058959848675        0.27024879072146
C            1.64705963095724        0.15540585119135        0.89627468514106
C            2.79960880119294       -0.64335035676485        0.38391434094699
C            4.09573161761064       -0.20886153734890        0.17169537636094
C            4.52270444054207        1.13588234363229        0.33943849481387
C            5.83215477745994        1.49696810122526        0.14541667643830
C            6.79842885189107        0.55454016145814       -0.22004850314812
O            8.09543215505031        0.80052935987240       -0.41537066143108
C            8.59953797360758        2.10739638810467       -0.24408007578504
C            6.39721484824489       -0.80797967804799       -0.41089628071349
O            7.39452438549850       -1.63869942141267       -0.76494691203924
C            7.11234336963414       -3.00283460427144       -0.97067448131658
C            5.08450211228448       -1.15944173554866       -0.22445405832502
C           -0.09995446942973       -1.50213915317241        0.49092137744933
C           -3.78185291837577        2.84410429189579        0.12078651856800
C           -4.64940122320467        2.79953124930415        1.37619388617354
C           -3.18031013557597        4.23726530497510       -0.03797929668540
H           -4.36225845791029        0.55406154032201       -1.69101362347142
H           -6.49792795894362        0.02372809028799       -2.57033188152357
H           -6.78896518412659       -1.52585202415910       -3.39735827156963
H           -5.15894297075782       -0.81209936019876       -3.41176862485843
H           -5.92583677450035       -3.51550318435458        2.46551213482460
H           -6.20868708874894       -4.85627105860248        1.32846916822552
H           -4.54266429743556       -4.39481800758661        1.75447053349251
H           -3.96988464732006       -2.17435244183612        2.39102138113687
H           -2.76886961817221       -0.07340876622102        2.21789713074491
H           -2.57802143863006        2.03402756308516       -1.99627877726384
H           -1.16330763949838        2.57003628241897       -1.11008454486885
H           -1.76024868272451       -0.39567860594085       -1.37906879878613
H           -1.08895162156981        0.50958519341260       -2.72112612415460
H           -0.92297344781499        1.07674333094565        1.16375901565893
H            0.76620433052767        1.27446751367744       -1.16783548151173
H            1.53230666437470       -0.04955894939455        1.97122822086804
H            1.82443691349393        1.22724936801045        0.78511210581763
H            0.64210949056798       -0.20867136653694       -1.59918933480901
H            2.59264791550747       -1.69076448455808        0.21829254663395
H            3.81148473116200        1.89486771389907        0.62242351790253
H            6.11771551361715        2.52847169926101        0.27926529395081
H            8.42566951901337        2.47375717876485        0.77261108245540
H            8.15808073598834        2.80227533215099       -0.96561800215771
H            9.67062209154886        2.03165058642184       -0.42344695156007
H            8.06083149922982       -3.45799213222916       -1.24116566080440
H            6.73040688409605       -3.47286245314918       -0.06102044314329
H            6.39535073894321       -3.14523862690153       -1.78378888716006
H            4.77158874808254       -2.18286666616200       -0.35825411274186
H            0.35450722370040       -2.22891892367813       -0.19251355854304
H           -1.18078700289725       -1.53651341778812        0.35591962722687
H            0.12224886266892       -1.79804065459509        1.51422964159064
H           -4.43273299035590        2.65774340458981       -0.74163622423572
H           -4.04318577504938        3.00164336922111        2.25422362792388
H           -5.12695386222835        1.82930372746329        1.49219409280305
H           -5.42561552927894        3.55749872895409        1.31171901611089
H           -2.50488971824353        4.45056582861869        0.78502159275040
H           -2.64560370693440        4.34405886349555       -0.97752164826022
H           -3.97877710464042        4.97471280669714       -0.02225656962804
H           -1.01739741491092        2.75105466504637        2.80972161402909

          :  Hamiltonian                  GFN2-xTB          :
         :: total energy            -102.038079045069 Eh    ::
         :: gradient norm              0.003561926492 Eh/a0 ::
         :: HOMO-LUMO gap              0.999231278753 eV    ::
         :: SCC energy              -100.780806270962 Eh    ::
         :: -> dispersion             -0.075948692548 Eh    ::
         :: repulsion energy           1.554805826281 Eh    ::

    * Orbital Energies and Occupations

         #    Occupation            Energy/Eh            Energy/eV
      -------------------------------------------------------------
         1        2.0000           -0.8212419             -22.3471
       ...           ...                  ...                  ...
        78        1.9968           -0.5291269             -14.3983
        79        1.9967           -0.5286347             -14.3849
        80        1.9961           -0.5263004             -14.3214
        81        1.9948           -0.5215833             -14.1930
        82        1.9921           -0.5149399             -14.0122
        83        1.9908           -0.5124526             -13.9445
        84        1.9885           -0.5089409             -13.8490
        85        1.9869           -0.5069225             -13.7941
        86        1.9659           -0.4915508             -13.3758
        87        1.9303           -0.4799476             -13.0600
        88        1.9133           -0.4763535             -12.9622
        89        1.7822           -0.4606558             -12.5351
        90        1.7190           -0.4560473             -12.4097 (HOMO)
        91        0.7513           -0.4193263             -11.4104 (LUMO)
        92        0.0062           -0.3358829              -9.1398
        93        0.0020           -0.3176307              -8.6432
        94        0.0019           -0.3173065              -8.6343
        95        0.0016           -0.3149383              -8.5699
        96        0.0005           -0.2954211              -8.0388
        97        0.0000           -0.1924593              -5.2371
        98        0.0000           -0.1881028              -5.1185
        99                         -0.1107195              -3.0128
       100                         -0.0706698              -1.9230
       101                         -0.0688300              -1.8730
       ...                                ...                  ...
       171                          1.4012517              38.1300
      -------------------------------------------------------------
                  HL-Gap            0.0367211 Eh            0.9992 eV

     #   Z          covCN         q      C6AA      α(0)
     1   7 N        1.774    -0.257    27.505     7.766
     2   6 C        2.827     0.092    25.952     8.348
     3   6 C        3.907     0.008    20.385     6.418
     4   6 C        2.974     0.011    27.765     8.643
     5   6 C        2.920    -0.076    29.885     8.965
     6   6 C        2.862     0.133    25.087     8.210
     7   8 O        1.706    -0.221    17.668     5.675
     8   6 C        3.644     0.025    20.488     6.506
     9   6 C        2.864     0.133    25.092     8.211
    10   8 O        1.706    -0.218    17.627     5.669
    11   6 C        3.646     0.025    20.495     6.506
    12   6 C        2.913    -0.070    29.737     8.942
    13   6 C        2.921    -0.046    29.143     8.853
    14   6 C        3.809    -0.066    21.755     6.639
    15   6 C        3.796    -0.073    21.892     6.662
    16   6 C        3.747    -0.029    21.167     6.562
    17   7 N        2.722    -0.141    24.052     7.284
    18   6 C        3.750     0.002    20.610     6.474
    19   6 C        2.903    -0.052    29.294     8.875
    20   6 C        2.960     0.014    27.702     8.633
    21   6 C        2.917    -0.038    28.935     8.821
    22   6 C        2.907    -0.062    29.537     8.911
    23   6 C        2.863     0.143    24.880     8.176
    24   8 O        1.706    -0.199    17.310     5.617
    25   6 C        3.644     0.020    20.575     6.520
    26   6 C        2.857     0.138    24.986     8.193
    27   8 O        1.706    -0.224    17.715     5.683
    28   6 C        3.646     0.025    20.492     6.505
    29   6 C        2.922    -0.077    29.919     8.970
    30   6 C        3.698    -0.043    21.514     6.634
    31   6 C        3.854    -0.008    20.682     6.468
    32   6 C        3.756    -0.118    22.807     6.809
    33   6 C        3.755    -0.119    22.836     6.814
    34   1 H        0.926     0.057     2.229     2.334
    35   1 H        0.924     0.057     2.239     2.340
    36   1 H        0.925     0.084     1.940     2.178
    37   1 H        0.924     0.053     2.283     2.363
    38   1 H        0.924     0.058     2.219     2.330
    39   1 H        0.925     0.084     1.938     2.177
    40   1 H        0.924     0.054     2.270     2.356
    41   1 H        0.926     0.058     2.228     2.334
    42   1 H        0.926     0.049     2.335     2.389
    43   1 H        0.924     0.054     2.268     2.355
    44   1 H        0.924     0.051     2.311     2.377
    45   1 H        0.925     0.050     2.322     2.383
    46   1 H        0.924     0.049     2.331     2.388
    47   1 H        0.923     0.057     2.229     2.335
    48   1 H        0.922     0.043     2.415     2.430
    49   1 H        0.923     0.065     2.137     2.286
    50   1 H        0.924     0.056     2.241     2.341
    51   1 H        0.930     0.098     1.802     2.099
    52   1 H        0.926     0.051     2.307     2.375
    53   1 H        0.926     0.052     2.296     2.369
    54   1 H        0.926     0.062     2.178     2.308
    55   1 H        0.924     0.062     2.170     2.304
    56   1 H        0.924     0.063     2.167     2.302
    57   1 H        0.925     0.089     1.890     2.150
    58   1 H        0.925     0.085     1.932     2.174
    59   1 H        0.924     0.055     2.258     2.350
    60   1 H        0.924     0.054     2.268     2.355
    61   1 H        0.926     0.056     2.243     2.342
    62   1 H        0.924     0.039     2.465     2.456
    63   1 H        0.925     0.054     2.269     2.356
    64   1 H        0.925     0.053     2.286     2.365
    65   1 H        0.924     0.040     2.447     2.446
    66   1 H        0.925     0.069     2.098     2.265
    67   1 H        0.925     0.035     2.510     2.478
    68   1 H        0.925     0.052     2.289     2.366
    69   1 H        0.925     0.065     2.140     2.287
    70   1 H        0.925     0.039     2.464     2.455
    71   1 H        0.925     0.055     2.260     2.351
    72   1 H        0.860     0.160     1.338     1.812

Wiberg/Mayer (AO) data.
largest (>0.10) Wiberg bond orders for each atom

     #   Z sym  total        # sym  WBO       # sym  WBO       # sym  WBO
 ---------------------------------------------------------------------------
     1   7 N    3.000 --     2 C    1.951    72 H    0.938
     2   6 C    3.911 --     1 N    1.951     3 C    0.989    47 H    0.892
     3   6 C    3.961 --     2 C    0.989     4 C    0.975    14 C    0.949
                            31 C    0.942
     4   6 C    3.928 --    13 C    1.395     5 C    1.374     3 C    0.975
     5   6 C    3.951 --     6 C    1.392     4 C    1.374    34 H    0.957
     6   6 C    3.886 --     5 C    1.392     9 C    1.210     7 O    1.109
     7   8 O    2.250 --     6 C    1.109     8 C    0.976
     8   6 C    3.927 --     7 O    0.976    36 H    0.976    35 H    0.972
                            37 H    0.972
     9   6 C    3.879 --    12 C    1.380     6 C    1.210    10 O    1.113
    10   8 O    2.249 --     9 C    1.113    11 C    0.976
    11   6 C    3.926 --    39 H    0.976    10 O    0.976    40 H    0.972
                            38 H    0.971
    12   6 C    3.951 --    13 C    1.415     9 C    1.380    41 H    0.963
    13   6 C    3.933 --    12 C    1.415     4 C    1.395    42 H    0.961
    14   6 C    3.983 --    15 C    1.009    44 H    0.970    43 H    0.968
                             3 C    0.949
    15   6 C    3.982 --    14 C    1.009    16 C    0.993    46 H    0.972
                            45 H    0.965
    16   6 C    3.959 --    15 C    0.993    17 N    0.976    51 H    0.972
                            48 H    0.968
    17   7 N    3.098 --    30 C    1.016    18 C    0.992    16 C    0.976
    18   6 C    3.971 --    19 C    1.031    17 N    0.992    50 H    0.956
                            49 H    0.933
    19   6 C    3.544 --    20 C    1.443    18 C    1.031    52 H    0.963
    20   6 C    3.975 --    19 C    1.443    21 C    1.221    29 C    1.205
    21   6 C    3.817 --    22 C    1.515    20 C    1.221    53 H    0.963
    22   6 C    3.965 --    21 C    1.515    23 C    1.318    54 H    0.961
    23   6 C    3.779 --    22 C    1.318    26 C    1.170    24 O    1.150
    24   8 O    2.265 --    23 C    1.150    25 C    0.970
    25   6 C    3.921 --    57 H    0.976    55 H    0.971    56 H    0.971
                            24 O    0.970
    26   6 C    3.913 --    29 C    1.475    23 C    1.170    27 O    1.107
    27   8 O    2.260 --    26 C    1.107    28 C    0.976
    28   6 C    3.927 --    58 H    0.976    27 O    0.976    60 H    0.973
                            59 H    0.972
    29   6 C    3.855 --    26 C    1.475    20 C    1.205    61 H    0.961
    30   6 C    3.970 --    17 N    1.016    64 H    0.980    63 H    0.969
                            62 H    0.966
    31   6 C    3.964 --    33 C    1.008    32 C    1.008    65 H    0.954
                             3 C    0.942
    32   6 C    3.971 --    31 C    1.008    67 H    0.980    68 H    0.980
                            66 H    0.970
    33   6 C    3.972 --    31 C    1.008    70 H    0.981    71 H    0.978
                            69 H    0.971
    34   1 H    0.995 --     5 C    0.957
    35   1 H    0.991 --     8 C    0.972
    36   1 H    0.992 --     8 C    0.976
    37   1 H    0.991 --     8 C    0.972
    38   1 H    0.990 --    11 C    0.971
    39   1 H    0.992 --    11 C    0.976
    40   1 H    0.990 --    11 C    0.972
    41   1 H    0.994 --    12 C    0.963
    42   1 H    0.996 --    13 C    0.961
    43   1 H    0.995 --    14 C    0.968
    44   1 H    0.996 --    14 C    0.970
    45   1 H    0.996 --    15 C    0.965
    46   1 H    0.995 --    15 C    0.972
    47   1 H    0.962 --     2 C    0.892
    48   1 H    0.997 --    16 C    0.968
    49   1 H    0.967 --    18 C    0.933
    50   1 H    0.991 --    18 C    0.956
    51   1 H    0.982 --    16 C    0.972
    52   1 H    0.996 --    19 C    0.963
    53   1 H    0.996 --    21 C    0.963
    54   1 H    0.994 --    22 C    0.961
    55   1 H    0.989 --    25 C    0.971
    56   1 H    0.988 --    25 C    0.971
    57   1 H    0.991 --    25 C    0.976
    58   1 H    0.992 --    28 C    0.976
    59   1 H    0.992 --    28 C    0.972
    60   1 H    0.992 --    28 C    0.973
    61   1 H    0.995 --    29 C    0.961
    62   1 H    0.981 --    30 C    0.966
    63   1 H    0.991 --    30 C    0.969
    64   1 H    0.997 --    30 C    0.980
    65   1 H    0.985 --    31 C    0.954
    66   1 H    0.988 --    32 C    0.970
    67   1 H    0.995 --    32 C    0.980
    68   1 H    0.992 --    32 C    0.980
    69   1 H    0.989 --    33 C    0.971
    70   1 H    0.995 --    33 C    0.981
    71   1 H    0.992 --    33 C    0.978
    72   1 H    0.963 --     1 N    0.938
 ---------------------------------------------------------------------------

molecular dipole:
                 x           y           z       tot (Debye)
 q only:        1.082      -0.003      -0.117
   full:        1.454      -0.319      -0.109       3.795

           -------------------------------------------------
          | TOTAL ENERGY             -102.038079045069 Eh   |
          | GRADIENT NORM               0.003561926492 Eh/α |
          | HOMO-LUMO GAP               0.999231278753 eV   |
           -------------------------------------------------

 * finished run on 2024/04/06 at 11:16:44.328
