   * xtb version 6.6.1 (8d0f1dd) compiled by 'conda@1efc2f54142f' on 2023-08-01
          program call               : xtb xtbopt.xyz --opt crude --input .xc2 --gfn2

   ID    Z sym.   atoms
    1    7 N      1, 17
    2    6 C      2-6, 8, 9, 11-16, 18-23, 25, 26, 28-33
    3    8 O      7, 10, 24, 27
    4    1 H      34-72
########################################################################
[WARNING] Please study the warnings concerning your input carefully
-1- readin_getIntValue: could not parse ''
########################################################################

          :  Hamiltonian                  GFN2-xTB          :
 * total energy  :   -99.2247112 Eh     change       -0.6252776E-12 Eh
 * total energy  :   -99.3868284 Eh     change       -0.1621172E+00 Eh
 * total energy  :   -99.3887129 Eh     change       -0.1884496E-02 Eh
 * total energy  :   -99.3896358 Eh     change       -0.9228980E-03 Eh
 * total energy  :   -99.3898630 Eh     change       -0.2272435E-03 Eh
   *** GEOMETRY OPTIMIZATION CONVERGED AFTER 5 ITERATIONS ***

 final structure:
================
72
 xtb: 6.6.1 (8d0f1dd)
N           -1.76017107675872        2.73362517440559        2.11743316448171
C           -1.72520439781246        1.83798973058301        1.24541161128868
C           -2.72261300943641        1.71189977715261        0.12627814151358
C           -3.45903708405283        0.38958786646604        0.24348307040065
C           -4.27852402993023       -0.04474959923118       -0.79910390961776
C           -4.99198736018926       -1.23016264238269       -0.71442970896609
O           -5.81343868407898       -1.71500855018343       -1.66436682666883
C           -6.05955241096519       -0.95358474790822       -2.82342019869418
C           -4.87778973776551       -2.03473654833755        0.45473930790486
O           -5.59118470766918       -3.17452600187915        0.44423702915730
C           -5.55762363248179       -4.01983497733640        1.57109163845905
C           -4.06798719618366       -1.59139170078114        1.49042331479845
C           -3.37616558065323       -0.39347641801110        1.38762007472359
C           -1.89353683477063        1.76379314188174       -1.18982185172845
C           -1.15962423278578        0.48333905725119       -1.62247139325272
C            0.27572779051666        0.29517655295025       -1.10723692650329
N            0.36801819014631       -0.14458477630111        0.27530952349073
C            1.64901642672843        0.15570526789729        0.90044931145439
C            2.79851644468827       -0.64471291821335        0.38440457612350
C            4.09319226591245       -0.20878903450273        0.17165106550967
C            4.52133455148991        1.13482781029904        0.34667268793202
C            5.82997920020089        1.49757175882660        0.15114075416824
C            6.79533740507366        0.55791548140288       -0.22182246871123
O            8.09122549258482        0.80562387727490       -0.42095968517543
C            8.59523210404383        2.11121223691026       -0.24382275696019
C            6.39429269291039       -0.80413684061162       -0.41658942953000
O            7.39190094488053       -1.63428555770306       -0.77428616051940
C            7.11156478379717       -3.00046875279447       -0.97557637213112
C            5.08162052744463       -1.15671133734819       -0.23069637279130
C           -0.10589635880844       -1.49269758601252        0.49750906403646
C           -3.78797905937867        2.84958169603883        0.12572300147592
C           -4.65449409011530        2.80579148067045        1.38209926099976
C           -3.18551381466574        4.24222522971636       -0.03428880773704
H           -4.36187115915828        0.55587468540057       -1.68957833108031
H           -6.48828011239556        0.02244505780028       -2.57692906824426
H           -6.78064169282911       -1.52799049159478       -3.40172252335938
H           -5.14928590039537       -0.81594388583041       -3.41542838002126
H           -5.93298680450409       -3.51171190920113        2.46423698626306
H           -6.21189731220928       -4.85513605775869        1.32921305410421
H           -4.54669351186564       -4.39391715899538        1.76064036720685
H           -3.97542311555329       -2.17160852343608        2.39402680122320
H           -2.77930802541761       -0.06793231721674        2.22494948684062
H           -2.58308902550429        2.03122710180549       -1.99214603729972
H           -1.17099666716763        2.57744932699952       -1.10790011730658
H           -1.76091382157797       -0.39222816289485       -1.38065219274261
H           -1.07433495956242        0.52170601262352       -2.71013654884184
H           -0.93267559107806        1.07877896096338        1.17482803715418
H            0.80005320879900        1.25305677604932       -1.18456104179896
H            1.53823659725622       -0.04935863132978        1.97584148151110
H            1.83163416850233        1.22666492382571        0.78960243800599
H            0.78040930367215       -0.42145079351476       -1.76321729961352
H            2.59125468242458       -1.69138524590728        0.21550429228956
H            3.81082409224034        1.89120863590502        0.63719931881037
H            6.11502736264909        2.52806438701291        0.29140272277325
H            8.43058271691134        2.46856490588593        0.77644683883986
H            8.14702434039024        2.81082855442721       -0.95506404969024
H            9.66449677364935        2.03907012324888       -0.43333127993434
H            8.06191457289328       -3.45676817064631       -1.24616887968010
H            6.73092530383424       -3.46891617995474       -0.06269024168050
H            6.39455509008460       -3.14556934921122       -1.78933686563630
H            4.76857099091928       -2.17886119960122       -0.37010334481136
H            0.35012071603614       -2.21609802700362       -0.18962207742421
H           -1.18592445602524       -1.52806066490841        0.35767495889738
H            0.11366624720814       -1.79191758712837        1.52053910720246
H           -4.43983621986946        2.66306867048974       -0.73607775422280
H           -4.04793936143834        3.00949198272199        2.25954593637646
H           -5.13065363701996        1.83510690282457        1.49948079130251
H           -5.43187010096876        3.56279226456309        1.31790764882527
H           -2.50973157801095        4.45535096213578        0.78864485680579
H           -2.65039144971191        4.34733992457256       -0.97405984712715
H           -3.98282368042876        4.98111087857315       -0.01956730290442
H           -1.02384790972663        2.75778469059366        2.81508917268062

          :  Hamiltonian                  GFN2-xTB          :
         :: total energy             -99.389863010778 Eh    ::
         :: gradient norm              0.007869451839 Eh/a0 ::
         :: HOMO-LUMO gap              1.008422034205 eV    ::
         :: SCC energy              -100.757240062884 Eh    ::
         :: -> dispersion             -0.075945107845 Eh    ::
         :: repulsion energy           1.366088992497 Eh    ::

    * Orbital Energies and Occupations

         #    Occupation            Energy/Eh            Energy/eV
      -------------------------------------------------------------
         1        2.0000           -0.8215508             -22.3555
       ...           ...                  ...                  ...
        78        1.9968           -0.5293829             -14.4052
        79        1.9966           -0.5288093             -14.3896
        80        1.9961           -0.5265297             -14.3276
        81        1.9948           -0.5217541             -14.1977
        82        1.9921           -0.5151656             -14.0184
        83        1.9907           -0.5126379             -13.9496
        84        1.9884           -0.5090995             -13.8533
        85        1.9869           -0.5072159             -13.8020
        86        1.9656           -0.4917286             -13.3806
        87        1.9310           -0.4804288             -13.0731
        88        1.9130           -0.4765982             -12.9689
        89        1.7811           -0.4608691             -12.5409
        90        1.7229           -0.4566076             -12.4249 (HOMO)
        91        0.7490           -0.4195488             -11.4165 (LUMO)
        92        0.0062           -0.3362290              -9.1493
        93        0.0019           -0.3178542              -8.6493
        94        0.0019           -0.3175674              -8.6415
        95        0.0016           -0.3152012              -8.5771
        96        0.0005           -0.2955127              -8.0413
        97        0.0000           -0.1927269              -5.2444
        98        0.0000           -0.1882437              -5.1224
        99                         -0.0999175              -2.7189
       100                         -0.0706069              -1.9213
       101                         -0.0684447              -1.8625
       ...                                ...                  ...
       171                          0.5861010              15.9486
      -------------------------------------------------------------
                  HL-Gap            0.0370588 Eh            1.0084 eV

     #   Z          covCN         q      C6AA      α(0)
     1   7 N        1.774    -0.258    27.516     7.768
     2   6 C        2.827     0.092    25.942     8.346
     3   6 C        3.907     0.008    20.381     6.417
     4   6 C        2.974     0.011    27.764     8.643
     5   6 C        2.920    -0.075    29.881     8.964
     6   6 C        2.862     0.133    25.085     8.210
     7   8 O        1.706    -0.221    17.665     5.675
     8   6 C        3.644     0.025    20.488     6.506
     9   6 C        2.864     0.133    25.090     8.210
    10   8 O        1.706    -0.218    17.626     5.668
    11   6 C        3.645     0.024    20.499     6.507
    12   6 C        2.913    -0.070    29.737     8.942
    13   6 C        2.921    -0.046    29.142     8.853
    14   6 C        3.808    -0.065    21.749     6.639
    15   6 C        3.798    -0.070    21.842     6.654
    16   6 C        3.750    -0.000    20.643     6.480
    17   7 N        2.724    -0.126    23.737     7.236
    18   6 C        3.753     0.000    20.637     6.478
    19   6 C        2.903    -0.051    29.259     8.869
    20   6 C        2.960     0.014    27.696     8.632
    21   6 C        2.917    -0.037    28.931     8.820
    22   6 C        2.907    -0.062    29.534     8.911
    23   6 C        2.864     0.143    24.874     8.175
    24   8 O        1.706    -0.198    17.303     5.616
    25   6 C        3.645     0.020    20.575     6.519
    26   6 C        2.856     0.138    24.986     8.193
    27   8 O        1.706    -0.224    17.717     5.683
    28   6 C        3.645     0.024    20.498     6.507
    29   6 C        2.922    -0.076    29.910     8.969
    30   6 C        3.701    -0.044    21.529     6.635
    31   6 C        3.853    -0.008    20.679     6.468
    32   6 C        3.756    -0.117    22.805     6.809
    33   6 C        3.755    -0.119    22.832     6.813
    34   1 H        0.926     0.058     2.228     2.334
    35   1 H        0.924     0.057     2.240     2.340
    36   1 H        0.925     0.084     1.939     2.177
    37   1 H        0.924     0.053     2.281     2.362
    38   1 H        0.924     0.058     2.217     2.329
    39   1 H        0.925     0.084     1.937     2.176
    40   1 H        0.924     0.054     2.267     2.355
    41   1 H        0.926     0.058     2.227     2.334
    42   1 H        0.926     0.049     2.338     2.391
    43   1 H        0.924     0.054     2.268     2.355
    44   1 H        0.924     0.050     2.315     2.379
    45   1 H        0.925     0.051     2.312     2.378
    46   1 H        0.924     0.052     2.295     2.369
    47   1 H        0.923     0.057     2.241     2.341
    48   1 H        0.924     0.048     2.350     2.397
    49   1 H        0.923     0.066     2.125     2.280
    50   1 H        0.924     0.057     2.233     2.337
    51   1 H        0.924     0.035     2.515     2.480
    52   1 H        0.926     0.052     2.297     2.370
    53   1 H        0.926     0.052     2.296     2.369
    54   1 H        0.926     0.062     2.174     2.306
    55   1 H        0.924     0.063     2.168     2.303
    56   1 H        0.924     0.063     2.166     2.302
    57   1 H        0.925     0.089     1.889     2.149
    58   1 H        0.925     0.085     1.932     2.174
    59   1 H        0.924     0.055     2.257     2.349
    60   1 H        0.924     0.055     2.265     2.353
    61   1 H        0.926     0.057     2.238     2.339
    62   1 H        0.924     0.039     2.456     2.451
    63   1 H        0.925     0.055     2.261     2.351
    64   1 H        0.925     0.054     2.274     2.358
    65   1 H        0.924     0.040     2.448     2.447
    66   1 H        0.925     0.069     2.100     2.266
    67   1 H        0.925     0.035     2.510     2.478
    68   1 H        0.925     0.053     2.288     2.366
    69   1 H        0.925     0.065     2.139     2.287
    70   1 H        0.925     0.039     2.465     2.455
    71   1 H        0.925     0.055     2.260     2.351
    72   1 H        0.860     0.159     1.338     1.812

Wiberg/Mayer (AO) data.
largest (>0.10) Wiberg bond orders for each atom

     #   Z sym  total        # sym  WBO       # sym  WBO       # sym  WBO
 ---------------------------------------------------------------------------
     1   7 N    3.000 --     2 C    1.950    72 H    0.938
     2   6 C    3.911 --     1 N    1.950     3 C    0.990    47 H    0.893
     3   6 C    3.961 --     2 C    0.990     4 C    0.975    14 C    0.949
                            31 C    0.942
     4   6 C    3.928 --    13 C    1.395     5 C    1.374     3 C    0.975
     5   6 C    3.951 --     6 C    1.392     4 C    1.374    34 H    0.957
     6   6 C    3.886 --     5 C    1.392     9 C    1.210     7 O    1.109
     7   8 O    2.250 --     6 C    1.109     8 C    0.976
     8   6 C    3.927 --     7 O    0.976    36 H    0.976    35 H    0.972
                            37 H    0.972
     9   6 C    3.879 --    12 C    1.380     6 C    1.210    10 O    1.113
    10   8 O    2.249 --     9 C    1.113    11 C    0.975
    11   6 C    3.926 --    39 H    0.976    10 O    0.975    40 H    0.972
                            38 H    0.972
    12   6 C    3.951 --    13 C    1.415     9 C    1.380    41 H    0.963
    13   6 C    3.933 --    12 C    1.415     4 C    1.395    42 H    0.961
    14   6 C    3.983 --    15 C    1.005    44 H    0.970    43 H    0.968
                             3 C    0.949
    15   6 C    3.984 --    14 C    1.005    16 C    0.999    46 H    0.972
                            45 H    0.965
    16   6 C    3.970 --    15 C    0.999    17 N    0.997    48 H    0.969
                            51 H    0.958
    17   7 N    3.119 --    30 C    1.014    16 C    0.997    18 C    0.990
    18   6 C    3.970 --    19 C    1.031    17 N    0.990    50 H    0.957
                            49 H    0.933
    19   6 C    3.545 --    20 C    1.445    18 C    1.031    52 H    0.963
    20   6 C    3.976 --    19 C    1.445    21 C    1.220    29 C    1.205
    21   6 C    3.817 --    22 C    1.516    20 C    1.220    53 H    0.963
    22   6 C    3.966 --    21 C    1.516    23 C    1.318    54 H    0.961
    23   6 C    3.779 --    22 C    1.318    26 C    1.170    24 O    1.150
    24   8 O    2.266 --    23 C    1.150    25 C    0.970
    25   6 C    3.921 --    57 H    0.976    55 H    0.971    56 H    0.971
                            24 O    0.970
    26   6 C    3.913 --    29 C    1.475    23 C    1.170    27 O    1.107
    27   8 O    2.259 --    26 C    1.107    28 C    0.975
    28   6 C    3.927 --    58 H    0.976    27 O    0.975    60 H    0.973
                            59 H    0.972
    29   6 C    3.855 --    26 C    1.475    20 C    1.205    61 H    0.961
    30   6 C    3.970 --    17 N    1.014    64 H    0.981    63 H    0.969
                            62 H    0.965
    31   6 C    3.964 --    33 C    1.008    32 C    1.008    65 H    0.955
                             3 C    0.942
    32   6 C    3.971 --    31 C    1.008    67 H    0.980    68 H    0.980
                            66 H    0.970
    33   6 C    3.972 --    31 C    1.008    70 H    0.981    71 H    0.978
                            69 H    0.971
    34   1 H    0.995 --     5 C    0.957
    35   1 H    0.991 --     8 C    0.972
    36   1 H    0.992 --     8 C    0.976
    37   1 H    0.991 --     8 C    0.972
    38   1 H    0.990 --    11 C    0.972
    39   1 H    0.992 --    11 C    0.976
    40   1 H    0.990 --    11 C    0.972
    41   1 H    0.994 --    12 C    0.963
    42   1 H    0.996 --    13 C    0.961
    43   1 H    0.995 --    14 C    0.968
    44   1 H    0.996 --    14 C    0.970
    45   1 H    0.996 --    15 C    0.965
    46   1 H    0.995 --    15 C    0.972
    47   1 H    0.962 --     2 C    0.893
    48   1 H    0.997 --    16 C    0.969
    49   1 H    0.967 --    18 C    0.933
    50   1 H    0.991 --    18 C    0.957
    51   1 H    0.982 --    16 C    0.958
    52   1 H    0.996 --    19 C    0.963
    53   1 H    0.996 --    21 C    0.963
    54   1 H    0.994 --    22 C    0.961
    55   1 H    0.989 --    25 C    0.971
    56   1 H    0.988 --    25 C    0.971
    57   1 H    0.991 --    25 C    0.976
    58   1 H    0.992 --    28 C    0.976
    59   1 H    0.992 --    28 C    0.972
    60   1 H    0.992 --    28 C    0.973
    61   1 H    0.995 --    29 C    0.961
    62   1 H    0.981 --    30 C    0.965
    63   1 H    0.991 --    30 C    0.969
    64   1 H    0.997 --    30 C    0.981
    65   1 H    0.985 --    31 C    0.955
    66   1 H    0.988 --    32 C    0.970
    67   1 H    0.995 --    32 C    0.980
    68   1 H    0.992 --    32 C    0.980
    69   1 H    0.989 --    33 C    0.971
    70   1 H    0.995 --    33 C    0.981
    71   1 H    0.992 --    33 C    0.978
    72   1 H    0.963 --     1 N    0.938
 ---------------------------------------------------------------------------

molecular dipole:
                 x           y           z       tot (Debye)
 q only:        1.060       0.022      -0.025
   full:        1.439      -0.293      -0.040       3.733

           -------------------------------------------------
          | TOTAL ENERGY              -99.389863010778 Eh   |
          | GRADIENT NORM               0.007869451839 Eh/α |
          | HOMO-LUMO GAP               1.008422034205 eV   |
           -------------------------------------------------

 * finished run on 2024/04/06 at 11:16:45.437
