   * xtb version 6.6.1 (8d0f1dd) compiled by 'conda@1efc2f54142f' on 2023-08-01
          program call               : xtb struc.xyz --opt loose --input .xc1 --gfn2

   ID    Z sym.   atoms
    1    6 C      1, 3, 5-7, 10, 11, 14
    2    7 N      2, 4, 9, 13
    3    8 O      8, 12
    4    1 H      15-25
constraining bond 3 5 to    5.0000000 Å, actual value:    2.1957592 Å

          :  Hamiltonian                  GFN2-xTB          :
 * total energy  :   -28.2042758 Eh     change       -0.6633627E-10 Eh
 * total energy  :   -32.8761275 Eh     change       -0.4671852E+01 Eh
 * total energy  :   -36.0349058 Eh     change       -0.3158778E+01 Eh
 * total energy  :   -38.4338201 Eh     change       -0.2398914E+01 Eh
 * total energy  :   -40.2036601 Eh     change       -0.1769840E+01 Eh
 * total energy  :   -41.0195088 Eh     change       -0.8158486E+00 Eh
 * total energy  :   -41.2115355 Eh     change       -0.1920267E+00 Eh
 * total energy  :   -41.2829970 Eh     change       -0.7146151E-01 Eh
 * total energy  :   -41.3474625 Eh     change       -0.6446550E-01 Eh
 * total energy  :   -41.3902476 Eh     change       -0.4278508E-01 Eh
 * total energy  :   -42.1072857 Eh     change       -0.6003163E-03 Eh
 * total energy  :   -42.1076265 Eh     change       -0.3407824E-03 Eh
 * total energy  :   -42.1077740 Eh     change       -0.1475823E-03 Eh
 * total energy  :   -42.1079550 Eh     change       -0.1809924E-03 Eh
 * total energy  :   -42.1080660 Eh     change       -0.1109262E-03 Eh
 * total energy  :   -42.1081515 Eh     change       -0.8555721E-04 Eh
 * total energy  :   -42.1082170 Eh     change       -0.6544469E-04 Eh
 * total energy  :   -42.1082736 Eh     change       -0.5662975E-04 Eh
 * total energy  :   -42.1083147 Eh     change       -0.4108240E-04 Eh
   *** GEOMETRY OPTIMIZATION CONVERGED AFTER 66 ITERATIONS ***

 final structure:
================
25
 xtb: 6.6.1 (8d0f1dd)
C            2.95779979435972        0.36817433694129       -0.44674492071626
N            1.80517346843986        0.01426146742415       -0.07535617371417
C            4.21579381405753        0.53192303463995        0.34591727385053
N            0.67857054705517       -2.59591731056528       -0.31619234789120
C           -0.58377045673261       -0.76106066852343       -0.08051481763209
C            0.53193061715848        0.12613881866949       -0.07601274905913
C           -0.06209984625075        1.54340602811491        0.03956307885186
O            0.57421570660015        2.55568537819928        0.03758123334669
N           -1.40832446650273        1.37483486305370        0.11068341943591
C           -2.34689674491975        2.46822807008989        0.23936128431569
C           -1.81533697776680        0.04203061710148        0.04340725887979
O           -2.96024918253275       -0.31948724753563        0.06952039406329
N           -0.46544199648775       -2.10518135426142       -0.17761260418254
C           -1.65814770553066       -2.92563096778316       -0.09202076407020
H            4.18237500066884        1.51362994882439        0.82521860539385
H            5.07777878265081        0.48500107638113       -0.30847272361730
H            3.07704138038204        0.54407696862427       -1.51881589611092
H            4.28705839266784       -0.21427051614742        1.13755866153853
H           -1.78642477997519        3.40012310327275        0.23811056829891
H           -3.04958104563097        2.45223171966878       -0.59340678816053
H           -2.90439466042055        2.36701330941665        1.17057948553083
H           -1.72350469408591       -3.35130792051872        0.91299321355282
H           -1.59011285064867       -3.74457461351612       -0.80941680240034
H           -2.55749866330420       -2.33784463617513       -0.27336160219290
H            0.68447808085108       -3.61324496379552       -0.37139466941146

          :  Hamiltonian                  GFN2-xTB          :
         :: total energy             -42.108314673774 Eh    ::
         :: gradient norm              0.003503635315 Eh/a0 ::
         :: HOMO-LUMO gap              2.086610299297 eV    ::
         :: SCC energy               -42.645749647961 Eh    ::
         :: -> dispersion             -0.020678646691 Eh    ::
         :: repulsion energy           0.537170958124 Eh    ::

    * Orbital Energies and Occupations

         #    Occupation            Energy/Eh            Energy/eV
      -------------------------------------------------------------
         1        2.0000           -0.8830968             -24.0303
       ...           ...                  ...                  ...
        25        2.0000           -0.6658943             -18.1199
        26        2.0000           -0.6458481             -17.5744
        27        2.0000           -0.6409091             -17.4400
        28        2.0000           -0.6370118             -17.3340
        29        2.0000           -0.6318378             -17.1932
        30        2.0000           -0.6232042             -16.9582
        31        2.0000           -0.6141139             -16.7109
        32        2.0000           -0.6088261             -16.5670
        33        1.9992           -0.5776871             -15.7197
        34        1.9982           -0.5709583             -15.5366
        35        1.9979           -0.5695878             -15.4993
        36        1.9969           -0.5665248             -15.4159
        37        1.9876           -0.5556186             -15.1192 (HOMO)
        38        0.0197           -0.4789371             -13.0325 (LUMO)
        39        0.0005           -0.4490149             -12.2183
        40        0.0001           -0.4372145             -11.8972
        41                         -0.3323292              -9.0431
        42                         -0.3158202              -8.5939
        43                         -0.1737355              -4.7276
        44                         -0.1560935              -4.2475
        45                         -0.1322138              -3.5977
        46                         -0.0973069              -2.6479
        47                         -0.0487996              -1.3279
        48                         -0.0238471              -0.6489
       ...                                ...                  ...
        67                          0.6719004              18.2833
      -------------------------------------------------------------
                  HL-Gap            0.0766815 Eh            2.0866 eV

     #   Z          covCN         q      C6AA      α(0)
     1   6 C        2.818     0.100    25.777     8.319
     2   7 N        1.828     0.013    21.714     6.905
     3   6 C        3.752    -0.130    23.061     6.848
     4   7 N        1.900    -0.261    27.647     7.795
     5   6 C        2.984    -0.037    28.916     8.821
     6   6 C        2.924     0.073    26.369     8.421
     7   6 C        2.825     0.275    22.361     7.748
     8   8 O        0.857    -0.318    20.103     6.011
     9   7 N        2.775    -0.066    22.520     7.048
    10   6 C        3.692    -0.060    21.846     6.688
    11   6 C        2.829     0.274    22.368     7.750
    12   8 O        0.857    -0.336    20.441     6.062
    13   7 N        2.802     0.248    17.235     6.166
    14   6 C        3.703    -0.114    22.850     6.835
    15   1 H        0.924     0.136     1.494     1.911
    16   1 H        0.925     0.108     1.710     2.045
    17   1 H        0.924     0.127     1.561     1.954
    18   1 H        0.924     0.115     1.658     2.014
    19   1 H        0.925     0.104     1.751     2.069
    20   1 H        0.925     0.099     1.791     2.093
    21   1 H        0.925     0.098     1.799     2.097
    22   1 H        0.924     0.118     1.626     1.994
    23   1 H        0.924     0.107     1.719     2.051
    24   1 H        0.925     0.136     1.488     1.908
    25   1 H        0.860     0.191     1.151     1.681

Wiberg/Mayer (AO) data.
largest (>0.10) Wiberg bond orders for each atom

     #   Z sym  total        # sym  WBO       # sym  WBO       # sym  WBO
 ---------------------------------------------------------------------------
     1   6 C    3.917 --     2 N    1.749     3 C    1.060    17 H    0.902
     2   7 N    3.640 --     1 C    1.749     6 C    1.563
     3   6 C    3.965 --     1 C    1.060    16 H    0.971    18 H    0.950
                            15 H    0.910
     4   7 N    2.966 --    13 N    1.548    25 H    0.934     5 C    0.166
     5   6 C    3.917 --     6 C    1.239    13 N    1.228    11 C    1.028
                             4 N    0.166
     6   6 C    3.956 --     2 N    1.563     5 C    1.239     7 C    0.871
     7   6 C    3.959 --     8 O    1.772     9 N    1.182     6 C    0.871
     8   8 O    2.145 --     7 C    1.772     9 N    0.157
     9   7 N    3.587 --     7 C    1.182    11 C    1.077    10 C    0.972
                             8 O    0.157    12 O    0.117
    10   6 C    3.920 --    19 H    0.974     9 N    0.972    20 H    0.965
                            21 H    0.964
    11   6 C    3.958 --    12 O    1.746     9 N    1.077     5 C    1.028
    12   8 O    2.106 --    11 C    1.746     9 N    0.117
    13   7 N    3.825 --     4 N    1.548     5 C    1.228    14 C    0.974
    14   6 C    3.926 --    13 N    0.974    23 H    0.960    24 H    0.953
                            22 H    0.939
    15   1 H    0.979 --     3 C    0.910
    16   1 H    0.987 --     3 C    0.971
    17   1 H    0.978 --     1 C    0.902
    18   1 H    0.986 --     3 C    0.950
    19   1 H    0.988 --    10 C    0.974
    20   1 H    0.986 --    10 C    0.965
    21   1 H    0.986 --    10 C    0.964
    22   1 H    0.984 --    14 C    0.939
    23   1 H    0.987 --    14 C    0.960
    24   1 H    0.981 --    14 C    0.953
    25   1 H    0.962 --     4 N    0.934
 ---------------------------------------------------------------------------

molecular dipole:
                 x           y           z       tot (Debye)
 q only:        1.681      -1.302      -0.128
   full:        1.557      -1.659      -0.206       5.807

           -------------------------------------------------
          | TOTAL ENERGY              -42.108314673774 Eh   |
          | GRADIENT NORM               0.003503635315 Eh/α |
          | HOMO-LUMO GAP               2.086610299297 eV   |
           -------------------------------------------------

 * finished run on 2024/06/05 at 19:57:56.087
