   * xtb version 6.6.1 (8d0f1dd) compiled by 'conda@1efc2f54142f' on 2023-08-01
          program call               : xtb xtbopt.xyz --opt crude --input .xc2 --gfn2

   ID    Z sym.   atoms
    1    6 C      1, 3, 5-7, 10, 11, 14
    2    7 N      2, 4, 9, 13
    3    8 O      8, 12
    4    1 H      15-25
########################################################################
[WARNING] Please study the warnings concerning your input carefully
-1- readin_getIntValue: could not parse ''
########################################################################

          :  Hamiltonian                  GFN2-xTB          :
 * total energy  :   -42.1085333 Eh     change       -0.1136868E-12 Eh
 * total energy  :   -42.1107753 Eh     change       -0.2242006E-02 Eh
 * total energy  :   -42.1118273 Eh     change       -0.1052057E-02 Eh
 * total energy  :   -42.1122379 Eh     change       -0.4106017E-03 Eh
   *** GEOMETRY OPTIMIZATION CONVERGED AFTER 4 ITERATIONS ***

 final structure:
================
25
 xtb: 6.6.1 (8d0f1dd)
C            2.93887558526153        0.35893652819784       -0.53802940331789
N            1.79413710183196        0.01747767494416       -0.16669638832063
C            4.10166746141377        0.46125264210277        0.35007085200282
N            0.73114133081290       -2.56950679468300       -0.31360040585572
C           -0.52919976615135       -0.73672910790367       -0.04497229269716
C            0.53903351699708        0.16629453623642       -0.09560330798971
C           -0.05480731818254        1.57701197399548        0.04385027850513
O            0.57482877113627        2.59267839807120        0.03978423297976
N           -1.39730667510350        1.38872672306856        0.13164789478731
C           -2.35473657779415        2.46666790777121        0.24743105337306
C           -1.78001444836849        0.04764155475893        0.07690712755901
O           -2.91975164260298       -0.32904579954915        0.10666503771380
N           -0.41228183997686       -2.08101057305376       -0.16201212736992
C           -1.60474296092591       -2.90220456300095       -0.08540279687658
H            4.08980640652977        1.45943234820183        0.79886506144598
H            5.03383238525197        0.36360398290649       -0.20854516774433
H            3.09591482495851        0.54403179254420       -1.60276681451690
H            4.06990372813392       -0.25758352219614        1.16962246718774
H           -1.80963821204795        3.40771282711934        0.23717143031059
H           -3.05376972309089        2.42807504313630       -0.58784204674943
H           -2.91321784843670        2.36626464887931        1.17773101717894
H           -1.68405904742016       -3.32553110927578        0.91864418548341
H           -1.53034009855434       -3.72299474438626       -0.79943195737101
H           -2.50118726889383       -2.31620294626940       -0.27940972161571
H            0.73634382932424       -3.58676088001555       -0.38290659020288

          :  Hamiltonian                  GFN2-xTB          :
         :: total energy             -42.112237947184 Eh    ::
         :: gradient norm              0.008956087350 Eh/a0 ::
         :: HOMO-LUMO gap              2.132240271729 eV    ::
         :: SCC energy               -42.663774610703 Eh    ::
         :: -> dispersion             -0.020851050622 Eh    ::
         :: repulsion energy           0.551479881228 Eh    ::

    * Orbital Energies and Occupations

         #    Occupation            Energy/Eh            Energy/eV
      -------------------------------------------------------------
         1        2.0000           -0.8843375             -24.0640
       ...           ...                  ...                  ...
        25        2.0000           -0.6676762             -18.1684
        26        2.0000           -0.6468984             -17.6030
        27        2.0000           -0.6413097             -17.4509
        28        2.0000           -0.6375273             -17.3480
        29        2.0000           -0.6313526             -17.1800
        30        2.0000           -0.6238776             -16.9766
        31        2.0000           -0.6157443             -16.7553
        32        2.0000           -0.6093556             -16.5814
        33        1.9993           -0.5783545             -15.7378
        34        1.9984           -0.5715267             -15.5520
        35        1.9979           -0.5694369             -15.4952
        36        1.9971           -0.5667898             -15.4231
        37        1.9889           -0.5560893             -15.1320 (HOMO)
        38        0.0178           -0.4777309             -12.9997 (LUMO)
        39        0.0004           -0.4482376             -12.1972
        40        0.0001           -0.4350815             -11.8392
        41                         -0.3319759              -9.0335
        42                         -0.3121834              -8.4949
        43                         -0.1729058              -4.7050
        44                         -0.1539872              -4.1902
        45                         -0.1076496              -2.9293
        46                         -0.0867161              -2.3597
        47                         -0.0468287              -1.2743
        48                         -0.0240547              -0.6546
       ...                                ...                  ...
        67                          0.7125324              19.3890
      -------------------------------------------------------------
                  HL-Gap            0.0783584 Eh            2.1322 eV

     #   Z          covCN         q      C6AA      α(0)
     1   6 C        2.822     0.102    25.722     8.310
     2   7 N        1.833     0.012    21.727     6.907
     3   6 C        3.757    -0.133    23.114     6.855
     4   7 N        1.900    -0.261    27.647     7.795
     5   6 C        2.984    -0.039    28.963     8.828
     6   6 C        2.941     0.075    26.333     8.416
     7   6 C        2.827     0.276    22.348     7.746
     8   8 O        0.857    -0.316    20.076     6.007
     9   7 N        2.777    -0.066    22.522     7.048
    10   6 C        3.692    -0.060    21.846     6.688
    11   6 C        2.839     0.273    22.400     7.756
    12   8 O        0.857    -0.335    20.433     6.061
    13   7 N        2.802     0.248    17.239     6.167
    14   6 C        3.703    -0.115    22.867     6.837
    15   1 H        0.924     0.137     1.480     1.902
    16   1 H        0.924     0.108     1.714     2.047
    17   1 H        0.924     0.127     1.558     1.952
    18   1 H        0.924     0.113     1.669     2.020
    19   1 H        0.925     0.104     1.752     2.070
    20   1 H        0.925     0.099     1.794     2.095
    21   1 H        0.925     0.099     1.795     2.095
    22   1 H        0.924     0.119     1.619     1.990
    23   1 H        0.924     0.107     1.723     2.053
    24   1 H        0.925     0.137     1.483     1.905
    25   1 H        0.860     0.191     1.151     1.681

Wiberg/Mayer (AO) data.
largest (>0.10) Wiberg bond orders for each atom

     #   Z sym  total        # sym  WBO       # sym  WBO       # sym  WBO
 ---------------------------------------------------------------------------
     1   6 C    3.920 --     2 N    1.743     3 C    1.070    17 H    0.904
     2   7 N    3.645 --     1 C    1.743     6 C    1.564
     3   6 C    3.969 --     1 C    1.070    16 H    0.968    18 H    0.952
                            15 H    0.903
     4   7 N    2.968 --    13 N    1.549    25 H    0.934     5 C    0.165
     5   6 C    3.921 --     6 C    1.253    13 N    1.224    11 C    1.023
                             4 N    0.165
     6   6 C    3.960 --     2 N    1.564     5 C    1.253     7 C    0.869
     7   6 C    3.960 --     8 O    1.774     9 N    1.182     6 C    0.869
     8   8 O    2.148 --     7 C    1.774     9 N    0.159
     9   7 N    3.588 --     7 C    1.182    11 C    1.077    10 C    0.972
                             8 O    0.159    12 O    0.117
    10   6 C    3.920 --    19 H    0.974     9 N    0.972    20 H    0.965
                            21 H    0.965
    11   6 C    3.957 --    12 O    1.749     9 N    1.077     5 C    1.023
    12   8 O    2.108 --    11 C    1.749     9 N    0.117
    13   7 N    3.827 --     4 N    1.549     5 C    1.224    14 C    0.975
    14   6 C    3.926 --    13 N    0.975    23 H    0.961    24 H    0.951
                            22 H    0.939
    15   1 H    0.979 --     3 C    0.903
    16   1 H    0.987 --     3 C    0.968
    17   1 H    0.978 --     1 C    0.904
    18   1 H    0.986 --     3 C    0.952
    19   1 H    0.989 --    10 C    0.974
    20   1 H    0.986 --    10 C    0.965
    21   1 H    0.986 --    10 C    0.965
    22   1 H    0.984 --    14 C    0.939
    23   1 H    0.988 --    14 C    0.961
    24   1 H    0.981 --    14 C    0.951
    25   1 H    0.962 --     4 N    0.934
 ---------------------------------------------------------------------------

molecular dipole:
                 x           y           z       tot (Debye)
 q only:        1.655      -1.296      -0.160
   full:        1.537      -1.635      -0.248       5.739

           -------------------------------------------------
          | TOTAL ENERGY              -42.112237947184 Eh   |
          | GRADIENT NORM               0.008956087350 Eh/α |
          | HOMO-LUMO GAP               2.132240271729 eV   |
           -------------------------------------------------

 * finished run on 2024/06/05 at 19:57:56.307
