   * xtb version 6.6.1 (8d0f1dd) compiled by 'conda@1efc2f54142f' on 2023-08-01
          program call               : xtb xtbopt.xyz --opt crude --input .xc2 --gfn2

   ID    Z sym.   atoms
    1    7 N      1, 17
    2    6 C      2-6, 8, 9, 11-16, 18-23, 25, 26, 28-33
    3    8 O      7, 10, 24, 27
    4    1 H      34-72
########################################################################
[WARNING] Please study the warnings concerning your input carefully
-1- readin_getIntValue: could not parse ''
########################################################################

          :  Hamiltonian                  GFN2-xTB          :
 * total energy  :   -99.3488008 Eh     change       -0.7375434E-11 Eh
   *** GEOMETRY OPTIMIZATION CONVERGED AFTER 1 ITERATIONS ***

 final structure:
================
72
 xtb: 6.6.1 (8d0f1dd)
N           -1.72267151958274        2.86748627209999        2.09879642697447
C           -1.83013509629036        2.04186942595129        1.16593202273268
C           -3.05289449304595        1.89776724617157        0.30125177464170
C           -3.52887268147589        0.45433334504538        0.34490096071408
C           -4.46977950748551       -0.00387240531243       -0.57943417905835
C           -4.95051638732301       -1.30228716573079       -0.54032156680990
O           -5.86341683451595       -1.82293786000366       -1.38854245555880
C           -6.47311807489797       -0.98732493614099       -2.34332485793130
C           -4.47438269667533       -2.19582784748716        0.45602033309327
O           -4.99012479548755       -3.44223937357073        0.41480968668574
C           -4.63430978494893       -4.36133481729505        1.42058222163858
C           -3.54836276859354       -1.73238184441977        1.37649382847730
C           -3.08801602540389       -0.42394849771225        1.32323152775107
C           -2.60540598015774        2.28504070823028       -1.13440130717324
C           -1.71071397705353        1.25046762593966       -1.83100661245470
C           -0.31058552205728        1.27242796566359       -1.33548148060045
N            0.51149440356162        0.22327317694345       -1.31102835959244
C            1.76361645921292        0.30866648873515       -0.85410819289376
C            2.77146227036097       -0.78712311228095       -0.92143960675922
C            4.16262569517663       -0.39791910202065       -0.50724059998670
C            4.69122473482894        0.94411820105005       -0.87062771029423
C            6.11554673292988        1.16610097878533       -0.50111863919080
C            6.86998493469485        0.23255922748780        0.12926880455970
O            8.15651344408827        0.36601986255455        0.50726094934146
C            8.81822343108191        1.58385390188172        0.25124221130015
C            6.29931813957393       -1.05390131171411        0.44545425633621
O            7.13091340222429       -1.91183871375216        1.04099872928323
C            6.70083914024986       -3.21964842406844        1.34434426436336
C            4.96207960306168       -1.31460380562227        0.11239825224517
C           -0.01123890863697       -1.05472227006253       -1.76433402790391
C           -4.24007065122481        2.80510369792962        0.73966488699243
C           -4.71671697043650        2.45846564860150        2.14810549270492
C           -3.92785650939397        4.29696559734717        0.65621640155737
H           -4.84154158433367        0.67022015331609       -1.33330807359529
H           -6.99073609130659       -0.14771974750653       -1.86961703618278
H           -7.19963394238796       -1.61399683294684       -2.85700039764640
H           -5.74724440777380       -0.60786350727359       -3.07002508384644
H           -4.90674244995370       -3.99355381618755        2.41431976354565
H           -5.19915414334189       -5.26573873280242        1.20332978653795
H           -3.56366661195685       -4.58910286903530        1.39670190986147
H           -3.18527848984699       -2.38045053503293        2.15755256282754
H           -2.39442486828223       -0.09178706523531        2.07997173515700
H           -3.49756221194375        2.43226531145168       -1.74270458393698
H           -2.07899253038836        3.23868492019140       -1.08964781647360
H           -2.16063959754792        0.26339550717481       -1.72262837570321
H           -1.71124985203218        1.49126581465097       -2.90350671500950
H           -1.01717971505845        1.36485458306948        0.85249192602333
H            0.11765138075461        2.22758926704209       -1.07630477579882
H            4.08806902653716        1.72671843249624       -0.39162802751559
H            2.05231727965217        1.26788397097069       -0.46501862780452
H            2.83664766701687       -1.15691114693065       -1.95782666662340
H            2.46451976802510       -1.64174924397386       -0.30372911098243
H            4.55977825495279        1.11199308520459       -1.94959489994486
H            6.52061797826665        2.13210719171141       -0.75496856901438
H            8.34611105866562        2.41355271944844        0.78565836007723
H            8.84636608555079        1.80668267018943       -0.81927862892567
H            9.83258153014309        1.44637316072214        0.61924161195372
H            7.56311404389517       -3.71462185870801        1.78665773439931
H            5.87786327379285       -3.21370114778852        2.06511835503044
H            6.39664420982524       -3.75923669079765        0.44255569638973
H            4.55311143131402       -2.28583305532849        0.34993008392815
H           -0.38199065291159       -0.96429920590581       -2.78457296746528
H           -0.83270757303342       -1.36742458474552       -1.11797666704174
H            0.75709707330961       -1.81866970793008       -1.73719060852618
H           -5.06154523757103        2.59059640667993        0.04569263911015
H           -3.93883499009886        2.68444925141368        2.87065142443123
H           -4.97941581229362        1.40614395858972        2.22681740142933
H           -5.59581396111908        3.04919020506582        2.39160456555211
H           -3.07664840643012        4.53671665288077        1.28550806999249
H           -3.72329747542655        4.61345241910943       -0.36297207422210
H           -4.78636618962594        4.86038689096968        1.01264741338604
H           -0.83996087640498        2.89966881505482        2.59975007403718

          :  Hamiltonian                  GFN2-xTB          :
         :: total energy             -99.348800844694 Eh    ::
         :: gradient norm              0.002155852569 Eh/a0 ::
         :: HOMO-LUMO gap              0.885707082771 eV    ::
         :: SCC energy              -100.717599034387 Eh    ::
         :: -> dispersion             -0.073526434460 Eh    ::
         :: repulsion energy           1.367604550214 Eh    ::

    * Orbital Energies and Occupations

         #    Occupation            Energy/Eh            Energy/eV
      -------------------------------------------------------------
         1        2.0000           -0.8210361             -22.3415
       ...           ...                  ...                  ...
        78        1.9989           -0.5294923             -14.4082
        79        1.9982           -0.5219247             -14.2023
        80        1.9981           -0.5216802             -14.1956
        81        1.9974           -0.5165096             -14.0549
        82        1.9972           -0.5149783             -14.0133
        83        1.9954           -0.5073515             -13.8057
        84        1.9948           -0.5054458             -13.7539
        85        1.9937           -0.5021472             -13.6641
        86        1.9794           -0.4834137             -13.1544
        87        1.9718           -0.4783774             -13.0173
        88        1.9310           -0.4638565             -12.6222
        89        1.8666           -0.4528787             -12.3235
        90        1.5845           -0.4322929             -11.7633 (HOMO)
        91        0.6560           -0.3997438             -10.8776 (LUMO)
        92        0.0223           -0.3400740              -9.2539
        93        0.0106           -0.3282687              -8.9326
        94        0.0047           -0.3154179              -8.5830
        95        0.0032           -0.3093305              -8.4173
        96        0.0026           -0.3060806              -8.3289
        97        0.0000           -0.2280736              -6.2062
        98        0.0000           -0.1835542              -4.9948
        99                         -0.1079420              -2.9373
       100                         -0.0723822              -1.9696
       101                         -0.0714469              -1.9442
       ...                                ...                  ...
       171                          0.5791375              15.7591
      -------------------------------------------------------------
                  HL-Gap            0.0325491 Eh            0.8857 eV

     #   Z          covCN         q      C6AA      α(0)
     1   7 N        1.774    -0.274    27.916     7.824
     2   6 C        2.828     0.102    25.723     8.311
     3   6 C        3.907     0.006    20.412     6.422
     4   6 C        2.974     0.002    27.970     8.675
     5   6 C        2.920    -0.079    29.979     8.979
     6   6 C        2.862     0.128    25.182     8.225
     7   8 O        1.706    -0.232    17.852     5.705
     8   6 C        3.644     0.029    20.432     6.497
     9   6 C        2.864     0.128    25.192     8.227
    10   8 O        1.706    -0.231    17.825     5.700
    11   6 C        3.645     0.028    20.435     6.497
    12   6 C        2.914    -0.073    29.823     8.955
    13   6 C        2.922    -0.051    29.271     8.872
    14   6 C        3.813    -0.064    21.719     6.633
    15   6 C        3.802    -0.065    21.750     6.640
    16   6 C        2.873    -0.045    29.116     8.845
    17   7 N        2.730     0.076    19.925     6.630
    18   6 C        2.866    -0.057    29.402     8.888
    19   6 C        3.808    -0.064    21.728     6.635
    20   6 C        2.952     0.006    27.894     8.663
    21   6 C        3.812    -0.065    21.738     6.636
    22   6 C        2.901    -0.081    30.022     8.984
    23   6 C        2.850     0.135    25.051     8.203
    24   8 O        1.706    -0.233    17.868     5.707
    25   6 C        3.646     0.024    20.503     6.507
    26   6 C        2.861     0.137    25.009     8.197
    27   8 O        1.706    -0.197    17.288     5.614
    28   6 C        3.645     0.021    20.558     6.517
    29   6 C        2.905    -0.074    29.849     8.958
    30   6 C        3.715    -0.076    22.084     6.714
    31   6 C        3.853    -0.007    20.672     6.467
    32   6 C        3.756    -0.116    22.779     6.805
    33   6 C        3.755    -0.120    22.849     6.816
    34   1 H        0.926     0.051     2.301     2.372
    35   1 H        0.924     0.053     2.284     2.363
    36   1 H        0.925     0.080     1.983     2.202
    37   1 H        0.924     0.046     2.366     2.405
    38   1 H        0.924     0.054     2.271     2.357
    39   1 H        0.925     0.079     1.985     2.203
    40   1 H        0.924     0.047     2.356     2.400
    41   1 H        0.926     0.051     2.309     2.376
    42   1 H        0.926     0.040     2.444     2.445
    43   1 H        0.925     0.055     2.257     2.349
    44   1 H        0.924     0.053     2.278     2.360
    45   1 H        0.925     0.058     2.224     2.332
    46   1 H        0.923     0.062     2.173     2.305
    47   1 H        0.923     0.009     2.906     2.666
    48   1 H        0.926     0.051     2.306     2.375
    49   1 H        0.923     0.080     1.982     2.202
    50   1 H        0.926     0.050     2.322     2.383
    51   1 H        0.923     0.073     2.058     2.243
    52   1 H        0.923     0.064     2.155     2.296
    53   1 H        0.923     0.082     1.962     2.191
    54   1 H        0.926     0.061     2.190     2.314
    55   1 H        0.924     0.052     2.292     2.368
    56   1 H        0.924     0.052     2.291     2.367
    57   1 H        0.925     0.083     1.949     2.183
    58   1 H        0.925     0.088     1.897     2.154
    59   1 H        0.924     0.059     2.212     2.326
    60   1 H        0.924     0.059     2.211     2.325
    61   1 H        0.926     0.054     2.265     2.353
    62   1 H        0.925     0.082     1.957     2.188
    63   1 H        0.924     0.080     1.979     2.200
    64   1 H        0.925     0.084     1.934     2.175
    65   1 H        0.924     0.036     2.506     2.476
    66   1 H        0.925     0.064     2.157     2.297
    67   1 H        0.925     0.034     2.533     2.489
    68   1 H        0.925     0.049     2.327     2.385
    69   1 H        0.925     0.065     2.136     2.286
    70   1 H        0.925     0.035     2.512     2.479
    71   1 H        0.925     0.052     2.289     2.366
    72   1 H        0.860     0.153     1.383     1.842

Wiberg/Mayer (AO) data.
largest (>0.10) Wiberg bond orders for each atom

     #   Z sym  total        # sym  WBO       # sym  WBO       # sym  WBO
 ---------------------------------------------------------------------------
     1   7 N    3.019 --     2 C    1.951    72 H    0.943
     2   6 C    3.934 --     1 N    1.951     3 C    0.994    47 H    0.916
     3   6 C    3.974 --     2 C    0.994     4 C    0.975    14 C    0.952
                            31 C    0.944
     4   6 C    3.947 --    13 C    1.413     5 C    1.370     3 C    0.975
     5   6 C    3.962 --     6 C    1.401     4 C    1.370    34 H    0.958
     6   6 C    3.903 --     5 C    1.401     9 C    1.225     7 O    1.095
     7   8 O    2.249 --     6 C    1.095     8 C    0.979
     8   6 C    3.933 --     7 O    0.979    36 H    0.977    35 H    0.974
                            37 H    0.974
     9   6 C    3.899 --    12 C    1.391     6 C    1.225    10 O    1.098
    10   8 O    2.248 --     9 C    1.098    11 C    0.979
    11   6 C    3.933 --    10 O    0.979    39 H    0.977    40 H    0.974
                            38 H    0.974
    12   6 C    3.963 --    13 C    1.408     9 C    1.391    41 H    0.964
    13   6 C    3.952 --     4 C    1.413    12 C    1.408    42 H    0.962
    14   6 C    3.981 --    15 C    0.995    44 H    0.972    43 H    0.968
                             3 C    0.952
    15   6 C    3.987 --    16 C    1.050    14 C    0.995    45 H    0.956
                            46 H    0.936
    16   6 C    3.662 --    17 N    1.336    15 C    1.050    48 H    0.960
                            18 C    0.214
    17   7 N    3.721 --    16 C    1.336    18 C    1.326    30 C    0.986
    18   6 C    3.622 --    17 N    1.326    19 C    1.036    50 H    0.958
                            16 C    0.214
    19   6 C    3.989 --    18 C    1.036    20 C    1.020    52 H    0.942
                            51 H    0.921
    20   6 C    3.733 --    29 C    1.562    21 C    1.042    19 C    1.020
    21   6 C    3.986 --    22 C    1.045    20 C    1.042    53 H    0.920
                            49 H    0.913
    22   6 C    3.796 --    23 C    1.578    21 C    1.045    54 H    0.963
                            24 O    0.107
    23   6 C    3.936 --    22 C    1.578    26 C    1.131    24 O    1.097
    24   8 O    2.263 --    23 C    1.097    25 C    0.976    22 C    0.107
    25   6 C    3.931 --    57 H    0.977    24 O    0.976    55 H    0.974
                            56 H    0.974
    26   6 C    3.683 --    29 C    1.287    27 O    1.150    23 C    1.131
    27   8 O    2.266 --    26 C    1.150    28 C    0.971
    28   6 C    3.926 --    58 H    0.976    60 H    0.972    59 H    0.972
                            27 O    0.971
    29   6 C    3.974 --    20 C    1.562    26 C    1.287    61 H    0.958
    30   6 C    3.956 --    17 N    0.986    64 H    0.973    62 H    0.972
                            63 H    0.966
    31   6 C    3.973 --    32 C    1.008    33 C    1.008    65 H    0.960
                             3 C    0.944
    32   6 C    3.981 --    31 C    1.008    67 H    0.982    68 H    0.982
                            66 H    0.976
    33   6 C    3.980 --    31 C    1.008    70 H    0.983    71 H    0.980
                            69 H    0.974
    34   1 H    0.996 --     5 C    0.958
    35   1 H    0.993 --     8 C    0.974
    36   1 H    0.993 --     8 C    0.977
    37   1 H    0.994 --     8 C    0.974
    38   1 H    0.993 --    11 C    0.974
    39   1 H    0.993 --    11 C    0.977
    40   1 H    0.993 --    11 C    0.974
    41   1 H    0.996 --    12 C    0.964
    42   1 H    0.998 --    13 C    0.962
    43   1 H    0.995 --    14 C    0.968
    44   1 H    0.996 --    14 C    0.972
    45   1 H    0.993 --    15 C    0.956
    46   1 H    0.974 --    15 C    0.936
    47   1 H    0.982 --     2 C    0.916
    48   1 H    0.997 --    16 C    0.960
    49   1 H    0.956 --    21 C    0.913
    50   1 H    0.997 --    18 C    0.958
    51   1 H    0.966 --    19 C    0.921
    52   1 H    0.978 --    19 C    0.942
    53   1 H    0.957 --    21 C    0.920
    54   1 H    0.995 --    22 C    0.963
    55   1 H    0.995 --    25 C    0.974
    56   1 H    0.995 --    25 C    0.974
    57   1 H    0.993 --    25 C    0.977
    58   1 H    0.992 --    28 C    0.976
    59   1 H    0.990 --    28 C    0.972
    60   1 H    0.990 --    28 C    0.972
    61   1 H    0.996 --    29 C    0.958
    62   1 H    0.993 --    30 C    0.972
    63   1 H    0.993 --    30 C    0.966
    64   1 H    0.993 --    30 C    0.973
    65   1 H    0.992 --    31 C    0.960
    66   1 H    0.992 --    32 C    0.976
    67   1 H    0.997 --    32 C    0.982
    68   1 H    0.995 --    32 C    0.982
    69   1 H    0.992 --    33 C    0.974
    70   1 H    0.997 --    33 C    0.983
    71   1 H    0.994 --    33 C    0.980
    72   1 H    0.970 --     1 N    0.943
 ---------------------------------------------------------------------------

molecular dipole:
                 x           y           z       tot (Debye)
 q only:        1.882      -0.488      -1.126
   full:        2.098      -0.629      -1.299       6.472

           -------------------------------------------------
          | TOTAL ENERGY              -99.348800844694 Eh   |
          | GRADIENT NORM               0.002155852569 Eh/α |
          | HOMO-LUMO GAP               0.885707082771 eV   |
           -------------------------------------------------

 * finished run on 2024/04/06 at 11:14:46.313
