   * xtb version 6.6.1 (8d0f1dd) compiled by 'conda@1efc2f54142f' on 2023-08-01
          program call               : xtb xtbopt.xyz --opt crude --input .xc2 --gfn2

   ID    Z sym.   atoms
    1    6 C      1, 3, 5-7, 10, 11, 14
    2    7 N      2, 4, 9, 13
    3    8 O      8, 12
    4    1 H      15-25
########################################################################
[WARNING] Please study the warnings concerning your input carefully
-1- readin_getIntValue: could not parse ''
########################################################################

          :  Hamiltonian                  GFN2-xTB          :
 * total energy  :   -42.1593960 Eh     change       -0.7673862E-12 Eh
 * total energy  :   -42.1618564 Eh     change       -0.2460431E-02 Eh
 * total energy  :   -42.1604449 Eh     change        0.1411515E-02 Eh
 * total energy  :   -42.1646521 Eh     change       -0.4207190E-02 Eh
 * total energy  :   -42.1653938 Eh     change       -0.7417165E-03 Eh
 * total energy  :   -42.1663199 Eh     change       -0.9260781E-03 Eh
 * total energy  :   -42.1665683 Eh     change       -0.2483896E-03 Eh
 * total energy  :   -42.1667622 Eh     change       -0.1939021E-03 Eh
   *** GEOMETRY OPTIMIZATION CONVERGED AFTER 8 ITERATIONS ***

 final structure:
================
25
 xtb: 6.6.1 (8d0f1dd)
C            4.25275905118033        0.48073874007460       -0.04167733539220
N            3.41786158892824       -0.42241147997494        0.23118492747036
C            2.72976215073279       -1.47270103433627        0.02011178275949
N            1.39730531615636       -1.60034898847612        0.05615718135610
C            0.42000953922741       -0.60018526905474        0.06360517851868
C            0.71218463906718        0.72460444214708        0.11280455011048
C           -0.32550333341989        1.73212649353533        0.08289679902979
O           -0.11297423539925        2.92222522972225        0.11018938962184
N           -1.61776830007617        1.21986220596597        0.00990483001319
C           -2.72577301796740        2.15736965952049       -0.03301463795229
C           -1.94557249950719       -0.10940551222824       -0.02499913881762
O           -3.08343512131707       -0.49453643047911       -0.08194341694829
N           -0.87549168652318       -1.02677194364983        0.00333874004682
C           -1.24012648175496       -2.43144786786908       -0.04045766102813
H            4.71401542709974        1.03464921781145        0.76146946167333
H            4.50823834813991        0.74145874781661       -1.06117446574017
H            1.71548726647008        1.09462398267705        0.17723420266120
H            3.27954343240816       -2.40800087479537       -0.05364373832190
H           -2.31105944401524        3.16329216537306       -0.02645728859068
H           -3.31466138267233        1.99354790602868       -0.93535045733330
H           -3.37273381409114        2.00862641472448        0.83162013366636
H           -0.91025827991823       -2.95592005974713        0.85789798841171
H           -0.85767466152486       -2.91469676444819       -0.94137776728422
H           -2.33046149880672       -2.47105191199271       -0.07393708481979
H            1.03675851168334       -2.54740852674480        0.02678944478931

          :  Hamiltonian                  GFN2-xTB          :
         :: total energy             -42.166762195585 Eh    ::
         :: gradient norm              0.008823671517 Eh/a0 ::
         :: HOMO-LUMO gap              2.248910147706 eV    ::
         :: SCC energy               -42.724364434894 Eh    ::
         :: -> dispersion             -0.021573154467 Eh    ::
         :: repulsion energy           0.557546195661 Eh    ::

    * Orbital Energies and Occupations

         #    Occupation            Energy/Eh            Energy/eV
      -------------------------------------------------------------
         1        2.0000           -0.8845928             -24.0710
       ...           ...                  ...                  ...
        25        1.9999           -0.6614456             -17.9989
        26        1.9999           -0.6576767             -17.8963
        27        1.9998           -0.6434640             -17.5095
        28        1.9998           -0.6397622             -17.4088
        29        1.9997           -0.6341303             -17.2556
        30        1.9991           -0.6195052             -16.8576
        31        1.9990           -0.6181220             -16.8200
        32        1.9948           -0.5913692             -16.0920
        33        1.9945           -0.5903456             -16.0641
        34        1.9788           -0.5689768             -15.4826
        35        1.9364           -0.5512027             -14.9990
        36        1.9172           -0.5468752             -14.8812
        37        1.9096           -0.5454166             -14.8415 (HOMO)
        38        0.2050           -0.4627707             -12.5926 (LUMO)
        39        0.0646           -0.4432892             -12.0625
        40        0.0016           -0.3840857             -10.4515
        41        0.0005           -0.3652861              -9.9399
        42        0.0000           -0.2753748              -7.4933
        43                         -0.1931548              -5.2560
        44                         -0.1706201              -4.6428
        45                         -0.1189745              -3.2375
        46                         -0.1069268              -2.9096
        47                         -0.0807315              -2.1968
        48                         -0.0397601              -1.0819
       ...                                ...                  ...
        67                          0.6141506              16.7119
      -------------------------------------------------------------
                  HL-Gap            0.0826459 Eh            2.2489 eV

     #   Z          covCN         q      C6AA      α(0)
     1   6 C        2.767     0.016    27.627     8.608
     2   7 N        1.826    -0.006    22.078     6.963
     3   6 C        2.757     0.111    25.532     8.274
     4   7 N        2.695    -0.084    22.886     7.105
     5   6 C        2.833     0.127    25.209     8.228
     6   6 C        2.910    -0.113    30.853     9.108
     7   6 C        2.770     0.277    22.323     7.738
     8   8 O        0.859    -0.345    20.620     6.088
     9   7 N        2.742    -0.072    22.630     7.065
    10   6 C        3.708    -0.061    21.811     6.675
    11   6 C        2.724     0.320    21.564     7.602
    12   8 O        0.860    -0.368    21.058     6.153
    13   7 N        2.748    -0.064    22.474     7.041
    14   6 C        3.698    -0.076    22.133     6.729
    15   1 H        0.926     0.145     1.424     1.866
    16   1 H        0.925     0.134     1.507     1.919
    17   1 H        0.926     0.092     1.856     2.131
    18   1 H        0.925     0.128     1.550     1.947
    19   1 H        0.925     0.115     1.653     2.011
    20   1 H        0.925     0.101     1.780     2.086
    21   1 H        0.925     0.101     1.777     2.085
    22   1 H        0.924     0.079     1.992     2.207
    23   1 H        0.924     0.078     2.003     2.213
    24   1 H        0.924     0.134     1.506     1.919
    25   1 H        0.860     0.233     0.954     1.530

Wiberg/Mayer (AO) data.
largest (>0.10) Wiberg bond orders for each atom

     #   Z sym  total        # sym  WBO       # sym  WBO       # sym  WBO
 ---------------------------------------------------------------------------
     1   6 C    3.725 --     2 N    1.752    15 H    0.935    16 H    0.924
     2   7 N    3.484 --     1 C    1.752     3 C    1.546     4 N    0.126
     3   6 C    3.885 --     2 N    1.546     4 N    1.288    18 H    0.910
     4   7 N    3.540 --     3 C    1.288     5 C    1.078    25 H    0.902
                             2 N    0.126
     5   6 C    3.928 --     6 C    1.531    13 N    1.183     4 N    1.078
     6   6 C    3.872 --     5 C    1.531     7 C    1.094    17 H    0.953
     7   6 C    3.948 --     8 O    1.681     6 C    1.094     9 N    1.089
     8   8 O    1.982 --     7 C    1.681     9 N    0.127
     9   7 N    3.530 --    11 C    1.145     7 C    1.089    10 C    0.975
                            12 O    0.131     8 O    0.127
    10   6 C    3.899 --     9 N    0.975    19 H    0.964    20 H    0.957
                            21 H    0.956
    11   6 C    3.959 --    12 O    1.679     9 N    1.145    13 N    1.048
    12   8 O    2.020 --    11 C    1.679     9 N    0.131    13 N    0.119
    13   7 N    3.521 --     5 C    1.183    11 C    1.048    14 C    0.983
                            12 O    0.119
    14   6 C    3.928 --    13 N    0.983    22 H    0.966    23 H    0.966
                            24 H    0.955
    15   1 H    0.975 --     1 C    0.935
    16   1 H    0.974 --     1 C    0.924
    17   1 H    0.990 --     6 C    0.953
    18   1 H    0.971 --     3 C    0.910
    19   1 H    0.983 --    10 C    0.964
    20   1 H    0.977 --    10 C    0.957
    21   1 H    0.976 --    10 C    0.956
    22   1 H    0.988 --    14 C    0.966
    23   1 H    0.988 --    14 C    0.966
    24   1 H    0.981 --    14 C    0.955
    25   1 H    0.945 --     4 N    0.902
 ---------------------------------------------------------------------------

molecular dipole:
                 x           y           z       tot (Debye)
 q only:        3.433      -2.077      -0.080
   full:        3.718      -2.431      -0.158      11.298

           -------------------------------------------------
          | TOTAL ENERGY              -42.166762195585 Eh   |
          | GRADIENT NORM               0.008823671517 Eh/α |
          | HOMO-LUMO GAP               2.248910147706 eV   |
           -------------------------------------------------

 * finished run on 2024/06/05 at 19:57:53.633
