   * xtb version 6.6.1 (8d0f1dd) compiled by 'conda@1efc2f54142f' on 2023-08-01
          program call               : xtb struc.xyz --opt loose --input .xc1 --gfn2

   ID    Z sym.   atoms
    1    6 C      1, 3, 5-7, 10, 11, 14
    2    7 N      2, 4, 9, 13
    3    8 O      8, 12
    4    1 H      15-25
constraining bond 9 20 to    4.0600000 Å, actual value:    2.0954220 Å

          :  Hamiltonian                  GFN2-xTB          :
 * total energy  :   -14.6823383 Eh     change       -0.6650680E-10 Eh
 * total energy  :   -30.0586107 Eh     change       -0.1537627E+02 Eh
 * total energy  :   -37.9871218 Eh     change       -0.7928511E+01 Eh
 * total energy  :   -41.2348333 Eh     change       -0.3247711E+01 Eh
 * total energy  :   -41.8024189 Eh     change       -0.5675856E+00 Eh
 * total energy  :   -41.8351088 Eh     change       -0.3268989E-01 Eh
 * total energy  :   -41.8586384 Eh     change       -0.2352962E-01 Eh
 * total energy  :   -41.8718449 Eh     change       -0.1320648E-01 Eh
 * total energy  :   -41.9010444 Eh     change       -0.2919951E-01 Eh
 * total energy  :   -41.9196243 Eh     change       -0.1857993E-01 Eh
 * total energy  :   -42.1034823 Eh     change       -0.2008822E-03 Eh
 * total energy  :   -42.1038248 Eh     change       -0.3425577E-03 Eh
 * total energy  :   -42.1041066 Eh     change       -0.2817252E-03 Eh
 * total energy  :   -42.1042977 Eh     change       -0.1911020E-03 Eh
 * total energy  :   -42.1044459 Eh     change       -0.1482166E-03 Eh
 * total energy  :   -42.1045040 Eh     change       -0.5817046E-04 Eh
 * total energy  :   -42.1045292 Eh     change       -0.2513291E-04 Eh
 * total energy  :   -42.1045619 Eh     change       -0.3270306E-04 Eh
 * total energy  :   -42.1045871 Eh     change       -0.2518361E-04 Eh
   *** GEOMETRY OPTIMIZATION CONVERGED AFTER 38 ITERATIONS ***

 final structure:
================
25
 xtb: 6.6.1 (8d0f1dd)
C            3.29351553893101        1.09076129425587        0.00698923510285
N            2.33458318449713        0.01904532365095       -0.01011238880124
C            2.59503010889089       -1.28406188873250       -0.06558028842341
N            1.43723320124635       -1.98505685758693       -0.03823621782995
C            0.40718714510741       -1.09608740806165        0.03885414246933
C            0.96607981042692        0.17545238590585        0.05730995062892
C            0.17112813523335        1.36521552702287        0.11318279279680
O            0.55194695361076        2.51431331331906        0.09469675342351
N           -1.22997497440117        1.05089698650722        0.19691690887873
C           -2.08731896694581        2.08042926504028        0.27085805028256
C           -1.80158723398573       -0.25369423811152        0.19219993438045
O           -2.98799766583758       -0.41429666981714        0.26946099705392
N           -0.92001281532047       -1.32774242920891        0.08978325392250
C           -1.46002648498663       -2.67514140043091        0.04962689936274
H            3.79560383183752        1.13426750733431        0.97502118960515
H            4.04123010599487        0.94136852968968       -0.77046914080645
H            2.77070499737282        2.03202289708801       -0.15783181323293
H            3.57178890636335       -1.72084558233152       -0.12451025968819
H           -1.67449875492236        3.07143470066311        0.26295181369763
H           -4.00811592081405        3.23509718560740       -1.80178744472835
H           -3.13868020643930        1.87580685307656        0.33449038365028
H           -1.12613924341311       -3.24666324187432        0.91590995456718
H           -1.16056452848996       -3.17519144052715       -0.87148516496480
H           -2.54592683025420       -2.59734284330721        0.07508232407681
H            1.36524322039810       -2.99174922757156       -0.07215024752402

          :  Hamiltonian                  GFN2-xTB          :
         :: total energy             -42.104587064543 Eh    ::
         :: gradient norm              0.003154049612 Eh/a0 ::
         :: HOMO-LUMO gap              0.277353251725 eV    ::
         :: SCC energy               -42.625258040581 Eh    ::
         :: -> dispersion             -0.022701444676 Eh    ::
         :: repulsion energy           0.520573646736 Eh    ::

    * Orbital Energies and Occupations

         #    Occupation            Energy/Eh            Energy/eV
      -------------------------------------------------------------
         1        2.0000           -0.9116488             -24.8072
       ...           ...                  ...                  ...
        25        2.0000           -0.6712866             -18.2666
        26        2.0000           -0.6694119             -18.2156
        27        2.0000           -0.6632660             -18.0484
        28        1.9999           -0.6335104             -17.2387
        29        1.9999           -0.6301103             -17.1462
        30        1.9999           -0.6280932             -17.0913
        31        1.9998           -0.6192577             -16.8509
        32        1.9997           -0.6146371             -16.7251
        33        1.9997           -0.6133059             -16.6889
        34        1.9982           -0.5857138             -15.9381
        35        1.9941           -0.5670606             -15.4305
        36        1.9901           -0.5589553             -15.2099
        37        1.1005           -0.4781851             -13.0121 (HOMO)
        38        0.7825           -0.4679925             -12.7347 (LUMO)
        39        0.1155           -0.4307868             -11.7223
        40        0.0172           -0.3998185             -10.8796
        41        0.0031           -0.3724781             -10.1356
        42        0.0000           -0.2880250              -7.8376
        43                         -0.2085558              -5.6751
        44                         -0.1972357              -5.3671
        45                         -0.1512370              -4.1154
        46                         -0.1456281              -3.9627
        47                         -0.0793426              -2.1590
        48                         -0.0543305              -1.4784
       ...                                ...                  ...
        67                          0.5482084              14.9175
      -------------------------------------------------------------
                  HL-Gap            0.0101925 Eh            0.2774 eV

     #   Z          covCN         q      C6AA      α(0)
     1   6 C        3.691    -0.094    22.484     6.785
     2   7 N        2.830     0.078    19.890     6.624
     3   6 C        3.049     0.047    26.895     8.505
     4   7 N        2.792    -0.058    22.357     7.023
     5   6 C        3.041     0.106    25.618     8.302
     6   6 C        3.109    -0.023    28.439     8.737
     7   6 C        2.774     0.254    22.722     7.807
     8   8 O        0.857    -0.361    20.925     6.133
     9   7 N        2.741    -0.032    21.859     6.944
    10   6 C        2.816    -0.022    28.536     8.752
    11   6 C        2.738     0.309    21.749     7.636
    12   8 O        0.859    -0.350    20.704     6.101
    13   7 N        2.737    -0.050    22.200     6.998
    14   6 C        3.698    -0.074    22.081     6.721
    15   1 H        0.924     0.108     1.712     2.046
    16   1 H        0.925     0.104     1.747     2.067
    17   1 H        0.925     0.134     1.503     1.917
    18   1 H        0.926     0.124     1.583     1.967
    19   1 H        0.926     0.134     1.502     1.916
    20   1 H        0.000     0.007     7.333     4.952
    21   1 H        0.926     0.132     1.520     1.928
    22   1 H        0.924     0.085     1.933     2.174
    23   1 H        0.925     0.084     1.943     2.180
    24   1 H        0.925     0.127     1.555     1.950
    25   1 H        0.860     0.229     0.969     1.542

Wiberg/Mayer (AO) data.
largest (>0.10) Wiberg bond orders for each atom

     #   Z sym  total        # sym  WBO       # sym  WBO       # sym  WBO
 ---------------------------------------------------------------------------
     1   6 C    3.917 --     2 N    0.987    16 H    0.965    17 H    0.961
                            15 H    0.955
     2   7 N    3.650 --     3 C    1.380     6 C    1.146     1 C    0.987
     3   6 C    3.822 --     2 N    1.380     4 N    1.266    18 H    0.953
     4   7 N    3.580 --     3 C    1.266     5 C    1.194    25 H    0.919
     5   6 C    3.900 --     6 C    1.329     4 N    1.194    13 N    1.191
     6   6 C    3.909 --     5 C    1.329     2 N    1.146     7 C    1.116
     7   6 C    3.869 --     8 O    1.676     6 C    1.116     9 N    0.986
     8   8 O    1.960 --     7 C    1.676     9 N    0.108
     9   7 N    3.615 --    10 C    1.343    11 C    1.016     7 C    0.986
                             8 O    0.108
    10   6 C    3.361 --     9 N    1.343    19 H    0.959    21 H    0.958
    11   6 C    3.906 --    12 O    1.709    13 N    1.087     9 N    1.016
    12   8 O    2.022 --    11 C    1.709    13 N    0.135
    13   7 N    3.565 --     5 C    1.191    11 C    1.087    14 C    0.970
                            12 O    0.135
    14   6 C    3.923 --    23 H    0.972    22 H    0.971    13 N    0.970
                            24 H    0.965
    15   1 H    0.983 --     1 C    0.955
    16   1 H    0.986 --     1 C    0.965
    17   1 H    0.982 --     1 C    0.961
    18   1 H    0.984 --     3 C    0.953
    19   1 H    0.981 --    10 C    0.959
    20   1 H    0.027
    21   1 H    0.982 --    10 C    0.958
    22   1 H    0.991 --    14 C    0.971
    23   1 H    0.991 --    14 C    0.972
    24   1 H    0.983 --    14 C    0.965
    25   1 H    0.947 --     4 N    0.919
 ---------------------------------------------------------------------------

molecular dipole:
                 x           y           z       tot (Debye)
 q only:        2.418      -2.023      -0.012
   full:        2.643      -2.476      -0.035       9.205

           -------------------------------------------------
          | TOTAL ENERGY              -42.104587064543 Eh   |
          | GRADIENT NORM               0.003154049612 Eh/α |
          | HOMO-LUMO GAP               0.277353251725 eV   |
           -------------------------------------------------

 * finished run on 2024/06/05 at 20:00:16.178
