   * xtb version 6.6.1 (8d0f1dd) compiled by 'conda@1efc2f54142f' on 2023-08-01
          program call               : xtb struc.xyz --opt loose --input .xc1 --gfn2

   ID    Z sym.   atoms
    1    7 N      1, 17
    2    6 C      2-6, 8, 9, 11-16, 18-23, 25, 26, 28-33
    3    8 O      7, 10, 24, 27
    4    1 H      34-72
constraining bond 4 63 to    7.7133300 Å, actual value:    3.0001185 Å

          :  Hamiltonian                  GFN2-xTB          :
 * total energy  :  -103.3705766 Eh     change       -0.4035485E-08 Eh
 * total energy  :  -104.5814755 Eh     change       -0.1210899E+01 Eh
 * total energy  :  -105.8968207 Eh     change       -0.1315345E+01 Eh
 * total energy  :  -107.3710951 Eh     change       -0.1474274E+01 Eh
 * total energy  :   -98.9689340 Eh     change        0.8402161E+01 Eh
 * total energy  :  -107.6340959 Eh     change       -0.8665162E+01 Eh
 * total energy  :  -107.7112214 Eh     change       -0.7712549E-01 Eh
 * total energy  :  -107.7832543 Eh     change       -0.7203293E-01 Eh
 * total energy  :  -107.8260780 Eh     change       -0.4282367E-01 Eh
 * total energy  :  -107.8489448 Eh     change       -0.2286681E-01 Eh
 * total energy  :  -107.8972025 Eh     change       -0.1227347E-03 Eh
 * total energy  :  -107.8972876 Eh     change       -0.8504358E-04 Eh
 * total energy  :  -107.8973767 Eh     change       -0.8915010E-04 Eh
 * total energy  :  -107.8974748 Eh     change       -0.9813499E-04 Eh
 * total energy  :  -107.8975665 Eh     change       -0.9161400E-04 Eh
 * total energy  :  -107.8976656 Eh     change       -0.9912113E-04 Eh
 * total energy  :  -107.8976917 Eh     change       -0.2616939E-04 Eh
 * total energy  :  -107.8977194 Eh     change       -0.2768111E-04 Eh
 * total energy  :  -107.8977488 Eh     change       -0.2936208E-04 Eh
   *** GEOMETRY OPTIMIZATION CONVERGED AFTER 46 ITERATIONS ***

 final structure:
================
72
 xtb: 6.6.1 (8d0f1dd)
N           -1.78190706756692        2.78878475679672        2.13841877825276
C           -1.65338777949955        1.98288906160430        1.18851213751184
C           -2.74988595770060        1.66883375513511        0.21168398472262
C           -2.76741746287977        0.06250698638454        0.05603116411993
C           -3.93501872976727       -0.34936867750338       -0.79837769842167
C           -4.81946099881171       -1.32390453621819       -0.46676224796888
O           -5.85937087432861       -1.73807002698253       -1.22119831214936
C           -6.12285634089026       -1.08445669692867       -2.44027926936388
C           -4.68938941271125       -2.03137040030262        0.78101907798161
O           -5.56514254349181       -3.01617162997752        0.97577616155988
C           -5.52610039504999       -3.77117866090095        2.16561552834909
C           -3.68873913362803       -1.63079225839541        1.68183119666463
C           -2.83243364164614       -0.61614423586526        1.39129098588512
C           -2.30176364504937        2.26009286131307       -1.15203940259711
C           -1.27270605450022        1.46418427659223       -1.98344013382050
C            0.03513596220656        1.24548139755975       -1.31126529175289
N            0.60775779523726        0.06761196588102       -1.08806685871635
C            1.95570438742923        0.08538440305046       -0.52499634663250
C            3.00471310240561       -0.10759040520937       -1.63059309408447
C            4.39084466294151        0.04089451717744       -1.06788226352830
C            5.06970732475006        1.24347819005943       -1.17289830700542
C            6.34096616318716        1.39079196920939       -0.64010028905106
C            6.95677232533057        0.33600867518631        0.01795151719492
O            8.18297369325649        0.36492721227265        0.57138174316108
C            8.95175643708089        1.54190332429932        0.47589976481498
C            6.26516884943983       -0.90196467611235        0.13622668059341
O            6.93660514869725       -1.87135180972783        0.78818967679974
C            6.34734271039064       -3.14074540526827        0.93648588928978
C            4.99622547050937       -1.02574972125706       -0.40717248493085
C            0.11116846127007       -1.13423254279344       -1.35192075355754
C           -4.12905665793861        2.25706471301121        0.59576766039943
C           -4.60542178684557        1.82799487116109        1.98018234380479
C           -4.14941500247389        3.78634187042201        0.53078268647594
H           -4.01818762448035        0.14749148185156       -1.75024631794678
H           -6.31926689628285       -0.01888159316122       -2.28899368046173
H           -7.01422504367941       -1.56178492408957       -2.84047700045503
H           -5.29778754074459       -1.20809074726931       -3.14872946084119
H           -5.70503135171815       -3.14547979196199        3.04432340905197
H           -6.32665106648969       -4.50195031883445        2.07663520286630
H           -4.57017015779797       -4.29137940046613        2.27533428850630
H           -3.62028707084019       -2.11472230640390        2.64337242758302
H           -2.09480916365209       -0.31944544848177        2.12093099243138
H           -3.18594313120959        2.38849501837676       -1.77748562638145
H           -1.89060267582391        3.25289614773294       -0.96320383403880
H           -1.70187710266986        0.52417169379717       -2.32383879778057
H           -1.09151055563824        2.07124412013877       -2.87906795736198
H           -0.71020105806382        1.46283385536978        0.95054878473301
H            0.61328734248147        2.12047458858233       -1.06551666183420
H            2.04515181118262       -0.71379652630833        0.21367514220409
H            2.13170432980823        1.03944121318606       -0.02453310476720
H            2.84047639576970        0.64088191880027       -2.40756561577386
H            2.88048647450539       -1.09583543132066       -2.07633258993735
H            4.61481731413819        2.07709961916107       -1.68567246258147
H            6.84772597890844        2.33549036001510       -0.74760113691878
H            8.46106396710746        2.38262374414963        0.97586819907498
H            9.15403042956301        1.80388478882394       -0.56695572391382
H            9.88990966483735        1.31986523187678        0.98071919997120
H            7.08075820559651       -3.74249903068294        1.46960275769589
H            5.42610043021884       -3.08907565864568        1.52568312946560
H            6.13740858679677       -3.60215654361002       -0.03317208691528
H            4.46861824235818       -1.96367792678461       -0.33392430918524
H           -0.82814985398748       -1.25891933009079       -1.84761682810077
H           -2.19050669152147       -0.06411497814001       -0.23718057660968
H            0.68558666117049       -2.00213733198848       -1.10325645545971
H           -4.84603895978817        1.87228343562072       -0.14026907912535
H           -3.94382070884821        2.22802221350746        2.74197923805754
H           -4.64336058135801        0.74774234089789        2.07100856917056
H           -5.60494591123608        2.21755405218930        2.15302327594145
H           -3.39164186153092        4.19551214358050        1.19120680662660
H           -3.98865510054725        4.15999675329308       -0.47596299512660
H           -5.12030392813902        4.14193045959085        0.86443396438934
H           -0.97000521075199        2.95606850652736        2.72446753234828

          :  Hamiltonian                  GFN2-xTB          :
         :: total energy            -107.897748791733 Eh    ::
         :: gradient norm              0.003535412931 Eh/a0 ::
         :: HOMO-LUMO gap              0.957879172542 eV    ::
         :: SCC energy              -100.735742477162 Eh    ::
         :: -> dispersion             -0.075638064736 Eh    ::
         :: repulsion energy           1.721101110495 Eh    ::

    * Orbital Energies and Occupations

         #    Occupation            Energy/Eh            Energy/eV
      -------------------------------------------------------------
         1        2.0000           -0.8247248             -22.4419
       ...           ...                  ...                  ...
        78        1.9986           -0.5322914             -14.4844
        79        1.9983           -0.5298779             -14.4187
        80        1.9981           -0.5277409             -14.3606
        81        1.9980           -0.5271159             -14.3436
        82        1.9966           -0.5186069             -14.1120
        83        1.9965           -0.5179417             -14.0939
        84        1.9955           -0.5140578             -13.9882
        85        1.9921           -0.5049931             -13.7416
        86        1.9757           -0.4871826             -13.2569
        87        1.9688           -0.4831358             -13.1468
        88        1.9377           -0.4719306             -12.8419
        89        1.8291           -0.4550449             -12.3824
        90        1.6344           -0.4412242             -12.0063 (HOMO)
        91        0.6523           -0.4060228             -11.0484 (LUMO)
        92        0.0168           -0.3419760              -9.3056
        93        0.0117           -0.3361707              -9.1477
        94        0.0039           -0.3186570              -8.6711
        95        0.0024           -0.3108961              -8.4599
        96        0.0020           -0.3080718              -8.3831
        97        0.0000           -0.2339205              -6.3653
        98        0.0000           -0.1859301              -5.0594
        99                         -0.1165120              -3.1705
       100                         -0.0848320              -2.3084
       101                         -0.0778384              -2.1181
       ...                                ...                  ...
       171                          2.3267777              63.3148
      -------------------------------------------------------------
                  HL-Gap            0.0352014 Eh            0.9579 eV

     #   Z          covCN         q      C6AA      α(0)
     1   7 N        1.774    -0.276    27.967     7.831
     2   6 C        2.825     0.097    25.847     8.331
     3   6 C        3.893     0.010    20.350     6.413
     4   6 C        3.856    -0.069    21.788     6.639
     5   6 C        2.904    -0.086    30.160     9.005
     6   6 C        2.848     0.134    25.072     8.206
     7   8 O        1.706    -0.236    17.908     5.714
     8   6 C        3.645     0.027    20.462     6.501
     9   6 C        2.864     0.139    24.975     8.192
    10   8 O        1.706    -0.194    17.238     5.606
    11   6 C        3.646     0.020    20.575     6.519
    12   6 C        2.898    -0.064    29.600     8.920
    13   6 C        2.906    -0.038    28.954     8.823
    14   6 C        3.809    -0.068    21.794     6.645
    15   6 C        3.801    -0.066    21.768     6.643
    16   6 C        2.859    -0.047    29.165     8.852
    17   7 N        2.730     0.087    19.738     6.598
    18   6 C        3.783    -0.018    20.914     6.514
    19   6 C        3.808    -0.069    21.806     6.647
    20   6 C        2.969     0.001    27.994     8.679
    21   6 C        2.922    -0.048    29.182     8.859
    22   6 C        2.914    -0.067    29.670     8.932
    23   6 C        2.865     0.134    25.074     8.208
    24   8 O        1.706    -0.221    17.666     5.675
    25   6 C        3.646     0.025    20.492     6.506
    26   6 C        2.863     0.133    25.081     8.209
    27   8 O        1.706    -0.224    17.711     5.682
    28   6 C        3.645     0.027    20.456     6.501
    29   6 C        2.919    -0.079    29.977     8.978
    30   6 C        2.812    -0.112    30.822     9.096
    31   6 C        3.850    -0.009    20.702     6.472
    32   6 C        3.757    -0.122    22.883     6.820
    33   6 C        3.757    -0.122    22.882     6.820
    34   1 H        0.926     0.054     2.273     2.358
    35   1 H        0.924     0.051     2.311     2.377
    36   1 H        0.925     0.083     1.950     2.184
    37   1 H        0.924     0.048     2.344     2.394
    38   1 H        0.924     0.063     2.160     2.298
    39   1 H        0.925     0.089     1.891     2.151
    40   1 H        0.924     0.061     2.189     2.314
    41   1 H        0.926     0.061     2.186     2.312
    42   1 H        0.926     0.049     2.329     2.386
    43   1 H        0.924     0.058     2.218     2.329
    44   1 H        0.924     0.058     2.227     2.334
    45   1 H        0.925     0.053     2.279     2.361
    46   1 H        0.924     0.066     2.131     2.283
    47   1 H        0.923     0.004     2.984     2.701
    48   1 H        0.926     0.049     2.327     2.385
    49   1 H        0.924     0.070     2.087     2.259
    50   1 H        0.924     0.066     2.132     2.283
    51   1 H        0.924     0.057     2.234     2.337
    52   1 H        0.924     0.060     2.204     2.322
    53   1 H        0.926     0.048     2.342     2.393
    54   1 H        0.926     0.059     2.207     2.323
    55   1 H        0.924     0.055     2.262     2.352
    56   1 H        0.924     0.057     2.239     2.340
    57   1 H        0.925     0.083     1.953     2.186
    58   1 H        0.925     0.082     1.960     2.189
    59   1 H        0.924     0.049     2.333     2.389
    60   1 H        0.924     0.053     2.279     2.361
    61   1 H        0.926     0.048     2.341     2.393
    62   1 H        0.927     0.053     2.279     2.361
    63   1 H        0.932     0.154     1.367     1.828
    64   1 H        0.927     0.056     2.248     2.344
    65   1 H        0.924     0.036     2.510     2.477
    66   1 H        0.925     0.067     2.122     2.278
    67   1 H        0.925     0.035     2.520     2.483
    68   1 H        0.925     0.052     2.295     2.369
    69   1 H        0.925     0.067     2.122     2.278
    70   1 H        0.925     0.038     2.472     2.459
    71   1 H        0.925     0.054     2.267     2.354
    72   1 H        0.860     0.156     1.360     1.827

Wiberg/Mayer (AO) data.
largest (>0.10) Wiberg bond orders for each atom

     #   Z sym  total        # sym  WBO       # sym  WBO       # sym  WBO
 ---------------------------------------------------------------------------
     1   7 N    3.008 --     2 C    1.943    72 H    0.943
     2   6 C    3.937 --     1 N    1.943     3 C    1.003    47 H    0.923
     3   6 C    3.914 --     2 C    1.003    31 C    0.969    14 C    0.961
                             4 C    0.857
     4   6 C    3.966 --    13 C    1.045     5 C    1.036    63 H    0.914
                             3 C    0.857
     5   6 C    3.797 --     6 C    1.570     4 C    1.036    34 H    0.959
                             7 O    0.105
     6   6 C    3.931 --     5 C    1.570     9 C    1.137     7 O    1.092
     7   8 O    2.259 --     6 C    1.092     8 C    0.978     5 C    0.105
     8   6 C    3.933 --     7 O    0.978    36 H    0.977    35 H    0.974
                            37 H    0.974
     9   6 C    3.686 --    12 C    1.274    10 O    1.158     6 C    1.137
    10   8 O    2.269 --     9 C    1.158    11 C    0.970
    11   6 C    3.923 --    39 H    0.976    40 H    0.971    38 H    0.971
                            10 O    0.970
    12   6 C    3.976 --    13 C    1.600     9 C    1.274    41 H    0.959
    13   6 C    3.737 --    12 C    1.600     4 C    1.045    42 H    0.965
    14   6 C    3.972 --    15 C    0.978    44 H    0.970    43 H    0.967
                             3 C    0.961
    15   6 C    3.986 --    16 C    1.046    14 C    0.978    45 H    0.965
                            46 H    0.945
    16   6 C    3.686 --    17 N    1.351    15 C    1.046    48 H    0.963
                            30 C    0.243
    17   7 N    3.738 --    30 C    1.361    16 C    1.351    18 C    0.966
    18   6 C    3.955 --    19 C    0.977    50 H    0.969    49 H    0.968
                            17 N    0.966
    19   6 C    3.987 --    20 C    1.007    18 C    0.977    51 H    0.972
                            52 H    0.968
    20   6 C    3.942 --    21 C    1.410    29 C    1.380    19 C    1.007
    21   6 C    3.947 --    22 C    1.416    20 C    1.410    53 H    0.968
    22   6 C    3.957 --    21 C    1.416    23 C    1.383    54 H    0.963
    23   6 C    3.892 --    22 C    1.383    26 C    1.217    24 O    1.111
    24   8 O    2.253 --    23 C    1.111    25 C    0.976
    25   6 C    3.928 --    57 H    0.977    24 O    0.976    55 H    0.972
                            56 H    0.972
    26   6 C    3.895 --    29 C    1.395    23 C    1.217    27 O    1.105
    27   8 O    2.253 --    26 C    1.105    28 C    0.978
    28   6 C    3.931 --    27 O    0.978    58 H    0.977    59 H    0.973
                            60 H    0.973
    29   6 C    3.958 --    26 C    1.395    20 C    1.380    61 H    0.962
    30   6 C    3.621 --    17 N    1.361    64 H    0.976    62 H    0.969
                            16 C    0.243
    31   6 C    3.976 --    32 C    1.009    33 C    1.002     3 C    0.969
                            65 H    0.957
    32   6 C    3.978 --    31 C    1.009    68 H    0.980    66 H    0.975
                            67 H    0.973
    33   6 C    3.976 --    31 C    1.002    70 H    0.983    71 H    0.981
                            69 H    0.975
    34   1 H    0.996 --     5 C    0.959
    35   1 H    0.995 --     8 C    0.974
    36   1 H    0.993 --     8 C    0.977
    37   1 H    0.995 --     8 C    0.974
    38   1 H    0.989 --    11 C    0.971
    39   1 H    0.992 --    11 C    0.976
    40   1 H    0.989 --    11 C    0.971
    41   1 H    0.995 --    12 C    0.959
    42   1 H    0.997 --    13 C    0.965
    43   1 H    0.994 --    14 C    0.967
    44   1 H    0.993 --    14 C    0.970
    45   1 H    0.997 --    15 C    0.965
    46   1 H    0.980 --    15 C    0.945
    47   1 H    0.985 --     2 C    0.923
    48   1 H    0.997 --    16 C    0.963
    49   1 H    0.994 --    18 C    0.968
    50   1 H    0.996 --    18 C    0.969
    51   1 H    0.996 --    19 C    0.972
    52   1 H    0.995 --    19 C    0.968
    53   1 H    0.997 --    21 C    0.968
    54   1 H    0.995 --    22 C    0.963
    55   1 H    0.991 --    25 C    0.972
    56   1 H    0.991 --    25 C    0.972
    57   1 H    0.992 --    25 C    0.977
    58   1 H    0.993 --    28 C    0.977
    59   1 H    0.993 --    28 C    0.973
    60   1 H    0.992 --    28 C    0.973
    61   1 H    0.996 --    29 C    0.962
    62   1 H    0.997 --    30 C    0.969
    63   1 H    0.958 --     4 C    0.914
    64   1 H    0.997 --    30 C    0.976
    65   1 H    0.993 --    31 C    0.957
    66   1 H    0.992 --    32 C    0.975
    67   1 H    0.996 --    32 C    0.973
    68   1 H    0.994 --    32 C    0.980
    69   1 H    0.992 --    33 C    0.975
    70   1 H    0.997 --    33 C    0.983
    71   1 H    0.994 --    33 C    0.981
    72   1 H    0.970 --     1 N    0.943
 ---------------------------------------------------------------------------

molecular dipole:
                 x           y           z       tot (Debye)
 q only:        0.040      -0.312      -0.291
   full:        0.403      -0.421      -0.454       1.878

           -------------------------------------------------
          | TOTAL ENERGY             -107.897748791733 Eh   |
          | GRADIENT NORM               0.003535412931 Eh/α |
          | HOMO-LUMO GAP               0.957879172542 eV   |
           -------------------------------------------------

 * finished run on 2024/04/06 at 11:15:48.518
