   * xtb version 6.6.1 (8d0f1dd) compiled by 'conda@1efc2f54142f' on 2023-08-01
          program call               : xtb xtbopt.xyz --opt crude --input .xc2 --gfn2

   ID    Z sym.   atoms
    1    7 N      1, 17
    2    6 C      2-6, 8, 9, 11-16, 18-23, 25, 26, 28-33
    3    8 O      7, 10, 24, 27
    4    1 H      34-72
########################################################################
[WARNING] Please study the warnings concerning your input carefully
-1- readin_getIntValue: could not parse ''
########################################################################

          :  Hamiltonian                  GFN2-xTB          :
 * total energy  :   -99.0133569 Eh     change       -0.2046363E-11 Eh
 * total energy  :   -99.3337168 Eh     change       -0.3203599E+00 Eh
 * total energy  :   -99.3374296 Eh     change       -0.3712782E-02 Eh
 * total energy  :   -99.3386013 Eh     change       -0.1171709E-02 Eh
 * total energy  :   -99.3390485 Eh     change       -0.4472397E-03 Eh
 * total energy  :   -99.3395057 Eh     change       -0.4571980E-03 Eh
   *** GEOMETRY OPTIMIZATION CONVERGED AFTER 6 ITERATIONS ***

 final structure:
================
72
 xtb: 6.6.1 (8d0f1dd)
N           -1.77239559305378        2.79515172363428        2.12658298933820
C           -1.65308402056681        1.97152649657316        1.19273446483835
C           -2.75265891872780        1.64954514018430        0.21879450369339
C           -2.85211295176892        0.07695625662961        0.12074372484836
C           -3.96626012309637       -0.35477372601288       -0.77062952501577
C           -4.84290243272840       -1.34110809086339       -0.45167918272763
O           -5.86566091368832       -1.76789410001510       -1.22230219219920
C           -6.12394339837095       -1.10954994775450       -2.44050199939805
C           -4.72284284442940       -2.04445627165320        0.79975477291500
O           -5.59981524866084       -3.03023496344630        0.99003506660012
C           -5.56238262954085       -3.78596221717899        2.18098539732027
C           -3.72972646973268       -1.64324402266986        1.70965604551870
C           -2.88714739710321       -0.61265972923108        1.43578214516285
C           -2.30717114183143        2.24512395518056       -1.14691155783155
C           -1.27388204112174        1.47595677621715       -1.99948330423583
C            0.04173703808698        1.25936555299427       -1.34110066443452
N            0.61869907843758        0.08446842204989       -1.11765088146469
C            1.95939105621942        0.10347129013068       -0.53855972007187
C            3.01583880779361       -0.09242912487003       -1.63663574012661
C            4.39939904660860        0.05144585879834       -1.06742537897685
C            5.08068353468660        1.25323722909855       -1.16738737837211
C            6.35126196660917        1.39601378872714       -0.63215160578230
C            6.96432259034477        0.33734907848914        0.02240646530845
O            8.19080604948138        0.36176872096715        0.57506647097295
C            8.96180853436306        1.53766566017129        0.48212666912521
C            6.26951420237610       -0.89935156192872        0.13678205104546
O            6.93763843397115       -1.87247142270535        0.78709194045346
C            6.34454363282611       -3.14096147975071        0.93014768544215
C            5.00084185609705       -1.01850337794841       -0.40860208223307
C            0.13075284292548       -1.12061908707520       -1.39209546022505
C           -4.12539160514874        2.27037217118435        0.59943876248372
C           -4.61273153554848        1.85031313659827        1.98302119038710
C           -4.12862801940669        3.79933954709673        0.53295437668234
H           -4.03998285572445        0.14378960160607       -1.72303251002847
H           -6.32044541030427       -0.04455168663027       -2.28515710011248
H           -7.01417522449502       -1.58493868754375       -2.84698098781284
H           -5.29606788907634       -1.23143709663351       -3.14613765663918
H           -5.74762653708113       -3.15893128209908        3.05758014518129
H           -6.36030661366817       -4.51983103041780        2.08684184894923
H           -4.60495602416313       -4.30251186530620        2.29443696045739
H           -3.65866821477442       -2.13762560815330        2.66527024717907
H           -2.15301268276799       -0.31553105032095        2.16915892584390
H           -3.19465047153736        2.37178794752952       -1.76801859530269
H           -1.90388895398908        3.23953924292141       -0.95012643910816
H           -1.69905578482288        0.54129490531517       -2.36021825225387
H           -1.10422203682633        2.10641700991040       -2.88092828049881
H           -0.71679298697349        1.43316192407618        0.96866457362236
H            0.61177242158968        2.13590925696754       -1.08287836698506
H            2.04192116186875       -0.69553676711289        0.20103740032715
H            2.12991377840779        1.05789451746002       -0.03736103879971
H            2.85822088083999        0.65639755643401       -2.41477443086697
H            2.89063887590427       -1.08052765372736       -2.08285134442842
H            4.62822764483796        2.08930925058818       -1.67839493266037
H            6.85971712964281        2.34035076113432       -0.73540293200777
H            8.47385178939323        2.37748718802830        0.98609703921274
H            9.16199766940212        1.80296399925533       -0.56027258245800
H            9.90055598312424        1.31186458898162        0.98404968907791
H            7.07415396851812       -3.74556101079318        1.46541885736117
H            5.42062968965753       -3.08830361059653        1.51512846109983
H            6.13794002195969       -3.59983258522803       -0.04164850740361
H            4.47054517870823       -1.95541920477820       -0.33906375724279
H           -0.77399990810530       -1.25456776355193       -1.94918879906147
H           -1.89574918889936       -0.19619740767675       -0.34771105812684
H            0.69997461453373       -1.98451108065589       -1.11805718301618
H           -4.84632489077174        1.89522278353568       -0.13742407221881
H           -3.94995904500741        2.24446141379782        2.74694959222303
H           -4.66426106184582        0.77035571195433        2.07643632878149
H           -5.60861849538949        2.25250792909437        2.15126725684043
H           -3.37072562360534        4.20261513761605        1.19692382956247
H           -3.96062653920612        4.17270200703666       -0.47289343934279
H           -5.09806156524474        4.16531059645691        0.86205275506086
H           -0.95986859341513        2.96375990240612        2.71148514915621

          :  Hamiltonian                  GFN2-xTB          :
         :: total energy             -99.339505728998 Eh    ::
         :: gradient norm              0.008502349823 Eh/a0 ::
         :: HOMO-LUMO gap              0.970533194049 eV    ::
         :: SCC energy              -100.708547715090 Eh    ::
         :: -> dispersion             -0.075371684326 Eh    ::
         :: repulsion energy           1.367762646923 Eh    ::

    * Orbital Energies and Occupations

         #    Occupation            Energy/Eh            Energy/eV
      -------------------------------------------------------------
         1        2.0000           -0.8245970             -22.4384
       ...           ...                  ...                  ...
        78        1.9986           -0.5323250             -14.4853
        79        1.9983           -0.5294711             -14.4076
        80        1.9981           -0.5277639             -14.3612
        81        1.9980           -0.5268869             -14.3373
        82        1.9966           -0.5185999             -14.1118
        83        1.9962           -0.5167325             -14.0610
        84        1.9952           -0.5130088             -13.9597
        85        1.9921           -0.5050857             -13.7441
        86        1.9757           -0.4872113             -13.2577
        87        1.9681           -0.4828465             -13.1389
        88        1.9352           -0.4713338             -12.8256
        89        1.8286           -0.4550473             -12.3825
        90        1.6418           -0.4416668             -12.0184 (HOMO)
        91        0.6503           -0.4060004             -11.0478 (LUMO)
        92        0.0166           -0.3418155              -9.3013
        93        0.0115           -0.3359222              -9.1409
        94        0.0037           -0.3180190              -8.6537
        95        0.0024           -0.3108938              -8.4599
        96        0.0020           -0.3081073              -8.3840
        97        0.0000           -0.2336607              -6.3582
        98        0.0000           -0.1859508              -5.0600
        99                         -0.1165957              -3.1727
       100                         -0.0773575              -2.1050
       101                         -0.0689628              -1.8766
       ...                                ...                  ...
       171                          0.5779504              15.7268
      -------------------------------------------------------------
                  HL-Gap            0.0356664 Eh            0.9705 eV

     #   Z          covCN         q      C6AA      α(0)
     1   7 N        1.774    -0.274    27.932     7.826
     2   6 C        2.825     0.099    25.796     8.322
     3   6 C        3.898     0.010    20.346     6.412
     4   6 C        3.861    -0.024    20.963     6.511
     5   6 C        2.904    -0.081    30.027     8.985
     6   6 C        2.849     0.134    25.058     8.204
     7   8 O        1.706    -0.235    17.896     5.712
     8   6 C        3.645     0.026    20.464     6.501
     9   6 C        2.863     0.139    24.969     8.191
    10   8 O        1.706    -0.194    17.243     5.607
    11   6 C        3.645     0.020    20.581     6.520
    12   6 C        2.899    -0.064    29.595     8.920
    13   6 C        2.905    -0.032    28.807     8.801
    14   6 C        3.809    -0.068    21.793     6.645
    15   6 C        3.800    -0.064    21.732     6.637
    16   6 C        2.858    -0.045    29.121     8.845
    17   7 N        2.731     0.084    19.779     6.605
    18   6 C        3.783    -0.017    20.901     6.512
    19   6 C        3.809    -0.069    21.805     6.647
    20   6 C        2.969     0.001    27.993     8.679
    21   6 C        2.922    -0.048    29.180     8.858
    22   6 C        2.914    -0.067    29.669     8.932
    23   6 C        2.865     0.134    25.073     8.208
    24   8 O        1.706    -0.221    17.664     5.674
    25   6 C        3.646     0.025    20.493     6.506
    26   6 C        2.863     0.133    25.081     8.209
    27   8 O        1.706    -0.224    17.712     5.682
    28   6 C        3.645     0.027    20.457     6.501
    29   6 C        2.919    -0.079    29.974     8.978
    30   6 C        2.812    -0.112    30.828     9.097
    31   6 C        3.851    -0.009    20.705     6.472
    32   6 C        3.757    -0.120    22.848     6.815
    33   6 C        3.756    -0.121    22.881     6.820
    34   1 H        0.926     0.055     2.253     2.347
    35   1 H        0.924     0.051     2.309     2.376
    36   1 H        0.925     0.083     1.947     2.182
    37   1 H        0.924     0.048     2.341     2.393
    38   1 H        0.924     0.064     2.157     2.297
    39   1 H        0.925     0.089     1.887     2.148
    40   1 H        0.924     0.061     2.186     2.312
    41   1 H        0.926     0.062     2.171     2.304
    42   1 H        0.926     0.051     2.306     2.375
    43   1 H        0.924     0.058     2.222     2.331
    44   1 H        0.924     0.058     2.224     2.332
    45   1 H        0.925     0.053     2.286     2.364
    46   1 H        0.924     0.066     2.125     2.279
    47   1 H        0.923     0.002     3.020     2.718
    48   1 H        0.926     0.049     2.330     2.387
    49   1 H        0.924     0.070     2.087     2.259
    50   1 H        0.924     0.066     2.135     2.285
    51   1 H        0.924     0.057     2.234     2.338
    52   1 H        0.924     0.060     2.204     2.322
    53   1 H        0.926     0.048     2.341     2.393
    54   1 H        0.926     0.059     2.206     2.323
    55   1 H        0.924     0.055     2.260     2.351
    56   1 H        0.924     0.057     2.239     2.340
    57   1 H        0.925     0.083     1.953     2.185
    58   1 H        0.925     0.082     1.959     2.189
    59   1 H        0.924     0.049     2.333     2.389
    60   1 H        0.924     0.053     2.279     2.361
    61   1 H        0.926     0.048     2.341     2.393
    62   1 H        0.926     0.053     2.284     2.363
    63   1 H        0.923     0.089     1.891     2.151
    64   1 H        0.927     0.054     2.269     2.356
    65   1 H        0.924     0.035     2.517     2.481
    66   1 H        0.925     0.065     2.137     2.286
    67   1 H        0.925     0.035     2.521     2.483
    68   1 H        0.925     0.052     2.299     2.371
    69   1 H        0.925     0.067     2.118     2.276
    70   1 H        0.925     0.038     2.476     2.461
    71   1 H        0.925     0.054     2.275     2.359
    72   1 H        0.860     0.157     1.357     1.825

Wiberg/Mayer (AO) data.
largest (>0.10) Wiberg bond orders for each atom

     #   Z sym  total        # sym  WBO       # sym  WBO       # sym  WBO
 ---------------------------------------------------------------------------
     1   7 N    3.013 --     2 C    1.949    72 H    0.942
     2   6 C    3.938 --     1 N    1.949     3 C    0.998    47 H    0.924
     3   6 C    3.934 --     2 C    0.998    31 C    0.963    14 C    0.959
                             4 C    0.901
     4   6 C    3.982 --    13 C    1.051     5 C    1.042     3 C    0.901
                            63 H    0.879
     5   6 C    3.798 --     6 C    1.569     4 C    1.042    34 H    0.959
                             7 O    0.105
     6   6 C    3.932 --     5 C    1.569     9 C    1.138     7 O    1.092
     7   8 O    2.259 --     6 C    1.092     8 C    0.977     5 C    0.105
     8   6 C    3.932 --     7 O    0.977    36 H    0.976    35 H    0.974
                            37 H    0.974
     9   6 C    3.687 --    12 C    1.274    10 O    1.158     6 C    1.138
    10   8 O    2.269 --     9 C    1.158    11 C    0.969
    11   6 C    3.923 --    39 H    0.976    40 H    0.972    38 H    0.971
                            10 O    0.969
    12   6 C    3.976 --    13 C    1.598     9 C    1.274    41 H    0.959
    13   6 C    3.739 --    12 C    1.598     4 C    1.051    42 H    0.965
    14   6 C    3.971 --    15 C    0.978    44 H    0.971    43 H    0.967
                             3 C    0.959
    15   6 C    3.987 --    16 C    1.046    14 C    0.978    45 H    0.964
                            46 H    0.944
    16   6 C    3.690 --    17 N    1.354    15 C    1.046    48 H    0.963
                            30 C    0.245
    17   7 N    3.733 --    16 C    1.354    30 C    1.351    18 C    0.966
    18   6 C    3.955 --    19 C    0.977    50 H    0.970    49 H    0.967
                            17 N    0.966
    19   6 C    3.986 --    20 C    1.007    18 C    0.977    51 H    0.972
                            52 H    0.968
    20   6 C    3.941 --    21 C    1.410    29 C    1.380    19 C    1.007
    21   6 C    3.947 --    22 C    1.416    20 C    1.410    53 H    0.968
    22   6 C    3.957 --    21 C    1.416    23 C    1.383    54 H    0.963
    23   6 C    3.892 --    22 C    1.383    26 C    1.217    24 O    1.111
    24   8 O    2.253 --    23 C    1.111    25 C    0.976
    25   6 C    3.927 --    57 H    0.977    24 O    0.976    55 H    0.972
                            56 H    0.972
    26   6 C    3.895 --    29 C    1.395    23 C    1.217    27 O    1.104
    27   8 O    2.253 --    26 C    1.104    28 C    0.978
    28   6 C    3.931 --    27 O    0.978    58 H    0.977    59 H    0.973
                            60 H    0.973
    29   6 C    3.958 --    26 C    1.395    20 C    1.380    61 H    0.962
    30   6 C    3.619 --    17 N    1.351    64 H    0.976    62 H    0.967
                            16 C    0.245
    31   6 C    3.976 --    32 C    1.009    33 C    1.004     3 C    0.963
                            65 H    0.958
    32   6 C    3.978 --    31 C    1.009    68 H    0.980    66 H    0.976
                            67 H    0.971
    33   6 C    3.977 --    31 C    1.004    70 H    0.982    71 H    0.981
                            69 H    0.975
    34   1 H    0.996 --     5 C    0.959
    35   1 H    0.995 --     8 C    0.974
    36   1 H    0.992 --     8 C    0.976
    37   1 H    0.995 --     8 C    0.974
    38   1 H    0.989 --    11 C    0.971
    39   1 H    0.992 --    11 C    0.976
    40   1 H    0.989 --    11 C    0.972
    41   1 H    0.995 --    12 C    0.959
    42   1 H    0.997 --    13 C    0.965
    43   1 H    0.994 --    14 C    0.967
    44   1 H    0.994 --    14 C    0.971
    45   1 H    0.997 --    15 C    0.964
    46   1 H    0.980 --    15 C    0.944
    47   1 H    0.984 --     2 C    0.924
    48   1 H    0.997 --    16 C    0.963
    49   1 H    0.994 --    18 C    0.967
    50   1 H    0.996 --    18 C    0.970
    51   1 H    0.996 --    19 C    0.972
    52   1 H    0.995 --    19 C    0.968
    53   1 H    0.997 --    21 C    0.968
    54   1 H    0.995 --    22 C    0.963
    55   1 H    0.991 --    25 C    0.972
    56   1 H    0.991 --    25 C    0.972
    57   1 H    0.992 --    25 C    0.977
    58   1 H    0.993 --    28 C    0.977
    59   1 H    0.993 --    28 C    0.973
    60   1 H    0.992 --    28 C    0.973
    61   1 H    0.996 --    29 C    0.962
    62   1 H    0.997 --    30 C    0.967
    63   1 H    0.947 --     4 C    0.879
    64   1 H    0.997 --    30 C    0.976
    65   1 H    0.993 --    31 C    0.958
    66   1 H    0.992 --    32 C    0.976
    67   1 H    0.996 --    32 C    0.971
    68   1 H    0.994 --    32 C    0.980
    69   1 H    0.991 --    33 C    0.975
    70   1 H    0.996 --    33 C    0.982
    71   1 H    0.994 --    33 C    0.981
    72   1 H    0.970 --     1 N    0.942
 ---------------------------------------------------------------------------

molecular dipole:
                 x           y           z       tot (Debye)
 q only:       -0.011      -0.317      -0.256
   full:        0.383      -0.430      -0.435       1.835

           -------------------------------------------------
          | TOTAL ENERGY              -99.339505728998 Eh   |
          | GRADIENT NORM               0.008502349823 Eh/α |
          | HOMO-LUMO GAP               0.970533194049 eV   |
           -------------------------------------------------

 * finished run on 2024/04/06 at 11:15:49.831
